 Entering Gaussian System, Link 0=g16
 Input=/Users/macmini_m1_2022/Poclab/ichizawa/Gaussian/20240527_1_500/1_#_m062x_6-311G_d_p_geom_allcheck_guess_read.gjf
 Output=/Users/macmini_m1_2022/Poclab/ichizawa/Gaussian/20240527_1_500/1_#_m062x_6-311G_d_p_geom_allcheck_guess_read.log
 Initial command:
 /Applications/g16/l1.exe "/Users/macmini_m1_2022/Poclab/ichizawa/Gaussian/20240527_1_500/Gau-63075.inp" -scrdir="/Users/macmini_m1_2022/Poclab/ichizawa/Gaussian/20240527_1_500/"
 Entering Link 1 = /Applications/g16/l1.exe PID=     63076.
  
 Copyright (c) 1988,1990,1992,1993,1995,1998,2003,2009,2016,
            Gaussian, Inc.  All Rights Reserved.
  
 This is part of the Gaussian(R) 16 program.  It is based on
 the Gaussian(R) 09 system (copyright 2009, Gaussian, Inc.),
 the Gaussian(R) 03 system (copyright 2003, Gaussian, Inc.),
 the Gaussian(R) 98 system (copyright 1998, Gaussian, Inc.),
 the Gaussian(R) 94 system (copyright 1995, Gaussian, Inc.),
 the Gaussian 92(TM) system (copyright 1992, Gaussian, Inc.),
 the Gaussian 90(TM) system (copyright 1990, Gaussian, Inc.),
 the Gaussian 88(TM) system (copyright 1988, Gaussian, Inc.),
 the Gaussian 86(TM) system (copyright 1986, Carnegie Mellon
 University), and the Gaussian 82(TM) system (copyright 1983,
 Carnegie Mellon University). Gaussian is a federally registered
 trademark of Gaussian, Inc.
  
 This software contains proprietary and confidential information,
 including trade secrets, belonging to Gaussian, Inc.
  
 This software is provided under written license and may be
 used, copied, transmitted, or stored only in accord with that
 written license.
  
 The following legend is applicable only to US Government
 contracts under FAR:
  
                    RESTRICTED RIGHTS LEGEND
  
 Use, reproduction and disclosure by the US Government is
 subject to restrictions as set forth in subparagraphs (a)
 and (c) of the Commercial Computer Software - Restricted
 Rights clause in FAR 52.227-19.
  
 Gaussian, Inc.
 340 Quinnipiac St., Bldg. 40, Wallingford CT 06492
  
  
 ---------------------------------------------------------------
 Warning -- This program may not be used in any manner that
 competes with the business of Gaussian, Inc. or will provide
 assistance to any competitor of Gaussian, Inc.  The licensee
 of this program is prohibited from giving any competitor of
 Gaussian, Inc. access to this program.  By using this program,
 the user acknowledges that Gaussian, Inc. is engaged in the
 business of creating and licensing software in the field of
 computational chemistry and represents and warrants to the
 licensee that it is not a competitor of Gaussian, Inc. and that
 it will not use this program in any manner prohibited above.
 ---------------------------------------------------------------
  

 Cite this work as:
 Gaussian 16, Revision A.03,
 M. J. Frisch, G. W. Trucks, H. B. Schlegel, G. E. Scuseria, 
 M. A. Robb, J. R. Cheeseman, G. Scalmani, V. Barone, 
 G. A. Petersson, H. Nakatsuji, X. Li, M. Caricato, A. V. Marenich, 
 J. Bloino, B. G. Janesko, R. Gomperts, B. Mennucci, H. P. Hratchian, 
 J. V. Ortiz, A. F. Izmaylov, J. L. Sonnenberg, D. Williams-Young, 
 F. Ding, F. Lipparini, F. Egidi, J. Goings, B. Peng, A. Petrone, 
 T. Henderson, D. Ranasinghe, V. G. Zakrzewski, J. Gao, N. Rega, 
 G. Zheng, W. Liang, M. Hada, M. Ehara, K. Toyota, R. Fukuda, 
 J. Hasegawa, M. Ishida, T. Nakajima, Y. Honda, O. Kitao, H. Nakai, 
 T. Vreven, K. Throssell, J. A. Montgomery, Jr., J. E. Peralta, 
 F. Ogliaro, M. J. Bearpark, J. J. Heyd, E. N. Brothers, K. N. Kudin, 
 V. N. Staroverov, T. A. Keith, R. Kobayashi, J. Normand, 
 K. Raghavachari, A. P. Rendell, J. C. Burant, S. S. Iyengar, 
 J. Tomasi, M. Cossi, J. M. Millam, M. Klene, C. Adamo, R. Cammi, 
 J. W. Ochterski, R. L. Martin, K. Morokuma, O. Farkas, 
 J. B. Foresman, and D. J. Fox, Gaussian, Inc., Wallingford CT, 2016.
 
 ******************************************
 Gaussian 16:  EM64M-G16RevA.03 25-Dec-2016
                27-May-2024 
 ******************************************
 %Mem=16GB
 %Nprocshared=10
 Will use up to   10 processors via shared memory.
 %oldchk=1_#_opt_freq_b3lyp_6-31G_d_geom_allcheck_guess_read.chk
 %chk=1_#_m062x_6-311G_d_p_geom_allcheck_guess_read.chk
 Copying data from "1_#_opt_freq_b3lyp_6-31G_d_geom_allcheck_guess_read.chk" to current chk file "1_#_m062x_6-311G_d_p_geom_allcheck_guess_read.chk"
 IOpt=  2 FromEx=T IUOpen= 4 IOptOp= 5 NList=   0 IFRang= 0 IUIn= 4 IUOut= 2.
 --------------------------------------------
 # m062x/6-311G(d,p) geom=allcheck guess=read
 --------------------------------------------
 1/29=7,38=1,172=1/1;
 2/12=2,40=1/2;
 3/5=4,6=6,7=101,11=2,14=-4,25=1,30=1,74=-55,116=-2/1,2,3;
 4/5=1/1;
 5/5=2,38=6/2;
 6/7=2,8=2,9=2,10=2,28=1/1;
 99/5=1,9=1/99;
 Structure from the checkpoint file:  "1_#_m062x_6-311G_d_p_geom_allcheck_guess_read.chk"
 ----------------
 Smiles:Oc1ccccc1
 ----------------
 Charge =  0 Multiplicity = 1
 Redundant internal coordinates found in file.  (old form).
 O,0,2.4078027375,-0.6564184626,0.1959046616
 C,0,1.0894104956,-0.3018066063,0.0907445792
 C,0,0.1382339057,-1.2282134094,0.5328834738
 C,0,-1.2162515985,-0.9165647198,0.4479226834
 C,0,-1.636167554,0.3109741896,-0.0739365703
 C,0,-0.681653075,1.2287085444,-0.5124027169
 C,0,0.6794199394,0.9285833169,-0.4327419022
 H,0,2.9550676879,0.0688934153,-0.1427392375
 H,0,0.4791143793,-2.1769922945,0.9356127708
 H,0,-1.9507042599,-1.6397341725,0.7927573793
 H,0,-2.694189044,0.5474835963,-0.1372664247
 H,0,-0.9915348524,2.1871711192,-0.9205556597
 H,0,1.4214542388,1.6479154899,-0.776184022
 Recover connectivity data from disk.
                           ----------------------------
                           !    Current Parameters    !
                           ! (Angstroms and Degrees)  !
 --------------------------                            --------------------------
 ! Name  Definition              Value                                          !
 --------------------------------------------------------------------------------
 ! R1    R(1,2)                  1.3693                                         !
 ! R2    R(1,8)                  0.9697                                         !
 ! R3    R(2,3)                  1.3994                                         !
 ! R4    R(2,7)                  1.3986                                         !
 ! R5    R(3,4)                  1.3925                                         !
 ! R6    R(3,9)                  1.0856                                         !
 ! R7    R(4,5)                  1.3984                                         !
 ! R8    R(4,10)                 1.0869                                         !
 ! R9    R(5,6)                  1.3948                                         !
 ! R10   R(5,11)                 1.086                                          !
 ! R11   R(6,7)                  1.396                                          !
 ! R12   R(6,12)                 1.0869                                         !
 ! R13   R(7,13)                 1.089                                          !
 ! A1    A(2,1,8)              108.8366                                         !
 ! A2    A(1,2,3)              117.3042                                         !
 ! A3    A(1,2,7)              122.6041                                         !
 ! A4    A(3,2,7)              120.0917                                         !
 ! A5    A(2,3,4)              119.5844                                         !
 ! A6    A(2,3,9)              118.8373                                         !
 ! A7    A(4,3,9)              121.5783                                         !
 ! A8    A(3,4,5)              120.7522                                         !
 ! A9    A(3,4,10)             119.2774                                         !
 ! A10   A(5,4,10)             119.9704                                         !
 ! A11   A(4,5,6)              119.2998                                         !
 ! A12   A(4,5,11)             120.3638                                         !
 ! A13   A(6,5,11)             120.3364                                         !
 ! A14   A(5,6,7)              120.5167                                         !
 ! A15   A(5,6,12)             120.2092                                         !
 ! A16   A(7,6,12)             119.2741                                         !
 ! A17   A(2,7,6)              119.7553                                         !
 ! A18   A(2,7,13)             119.9597                                         !
 ! A19   A(6,7,13)             120.285                                          !
 ! D1    D(8,1,2,3)            180.0                                            !
 ! D2    D(8,1,2,7)              0.0                                            !
 ! D3    D(1,2,3,4)            180.0                                            !
 ! D4    D(1,2,3,9)              0.0                                            !
 ! D5    D(7,2,3,4)              0.0                                            !
 ! D6    D(7,2,3,9)            180.0                                            !
 ! D7    D(1,2,7,6)            180.0                                            !
 ! D8    D(1,2,7,13)             0.0                                            !
 ! D9    D(3,2,7,6)              0.0                                            !
 ! D10   D(3,2,7,13)           180.0                                            !
 ! D11   D(2,3,4,5)              0.0                                            !
 ! D12   D(2,3,4,10)           180.0                                            !
 ! D13   D(9,3,4,5)            180.0                                            !
 ! D14   D(9,3,4,10)             0.0                                            !
 ! D15   D(3,4,5,6)              0.0                                            !
 ! D16   D(3,4,5,11)           180.0                                            !
 ! D17   D(10,4,5,6)           180.0                                            !
 ! D18   D(10,4,5,11)            0.0                                            !
 ! D19   D(4,5,6,7)              0.0                                            !
 ! D20   D(4,5,6,12)           180.0                                            !
 ! D21   D(11,5,6,7)           180.0                                            !
 ! D22   D(11,5,6,12)            0.0                                            !
 ! D23   D(5,6,7,2)              0.0                                            !
 ! D24   D(5,6,7,13)          -180.0                                            !
 ! D25   D(12,6,7,2)           180.0                                            !
 ! D26   D(12,6,7,13)            0.0                                            !
 --------------------------------------------------------------------------------
                          Input orientation:                          
 ---------------------------------------------------------------------
 Center     Atomic      Atomic             Coordinates (Angstroms)
 Number     Number       Type             X           Y           Z
 ---------------------------------------------------------------------
      1          8           0        2.407803   -0.656418    0.195905
      2          6           0        1.089410   -0.301807    0.090745
      3          6           0        0.138234   -1.228213    0.532883
      4          6           0       -1.216252   -0.916565    0.447923
      5          6           0       -1.636168    0.310974   -0.073937
      6          6           0       -0.681653    1.228709   -0.512403
      7          6           0        0.679420    0.928583   -0.432742
      8          1           0        2.955068    0.068893   -0.142739
      9          1           0        0.479114   -2.176992    0.935613
     10          1           0       -1.950704   -1.639734    0.792757
     11          1           0       -2.694189    0.547484   -0.137266
     12          1           0       -0.991535    2.187171   -0.920556
     13          1           0        1.421454    1.647915   -0.776184
 ---------------------------------------------------------------------
                    Distance matrix (angstroms):
                    1          2          3          4          5
     1  O    0.000000
     2  C    1.369294   0.000000
     3  C    2.364624   1.399447   0.000000
     4  C    3.642109   2.412795   1.392471   0.000000
     5  C    4.166816   2.798463   2.426073   1.398398   0.000000
     6  C    3.687837   2.417215   2.793081   2.410439   1.394843
     7  C    2.427907   1.398567   2.424270   2.788138   2.423247
     8  H    0.969668   1.916405   3.173878   4.326652   4.598128
     9  H    2.564986   2.145364   1.085620   2.168129   3.418126
    10  H    4.507741   3.394874   2.144888   1.086879   2.157627
    11  H    5.252685   3.884444   3.409519   2.161061   1.085982
    12  H    4.570337   3.398245   3.879912   3.399472   2.156949
    13  H    2.688456   2.159452   3.410635   3.877175   3.410222
                    6          7          8          9         10
     6  C    0.000000
     7  C    1.396045   0.000000
     8  H    3.835044   2.449845   0.000000
     9  H    3.878521   3.399576   3.512434   0.000000
    10  H    3.397337   3.875004   5.278367   2.492604   0.000000
    11  H    2.157567   3.407900   5.669496   4.317834   2.490308
    12  H    1.086861   2.148045   4.546182   4.965289   4.301238
    13  H    2.160642   1.089039   2.290531   4.295134   4.964038
                   11         12         13
    11  H    0.000000
    12  H    2.490211   0.000000
    13  H    4.307863   2.476723   0.000000
 Stoichiometry    C6H6O
 Framework group  C1[X(C6H6O)]
 Deg. of freedom    33
 Full point group                 C1      NOp   1
 Largest Abelian subgroup         C1      NOp   1
 Largest concise Abelian subgroup C1      NOp   1
                         Standard orientation:                         
 ---------------------------------------------------------------------
 Center     Atomic      Atomic             Coordinates (Angstroms)
 Number     Number       Type             X           Y           Z
 ---------------------------------------------------------------------
      1          8           0       -2.307251   -0.111785   -0.000000
      2          6           0       -0.940753   -0.024330    0.000000
      3          6           0       -0.220695   -1.224318    0.000000
      4          6           0        1.171371   -1.190742    0.000000
      5          6           0        1.857222    0.027915    0.000000
      6          6           0        1.131957    1.219375    0.000000
      7          6           0       -0.263947    1.199567    0.000000
      8          1           0       -2.678303    0.784081    0.000000
      9          1           0       -0.766729   -2.162624    0.000000
     10          1           0        1.725601   -2.125693    0.000000
     11          1           0        2.943041    0.046742    0.000000
     12          1           0        1.649913    2.174879    0.000000
     13          1           0       -0.826440    2.132094   -0.000000
 ---------------------------------------------------------------------
 Rotational constants (GHZ):           5.6457108           2.6130711           1.7862978
 Standard basis: 6-311G(d,p) (5D, 7F)
 There are   169 symmetry adapted cartesian basis functions of A   symmetry.
 There are   162 symmetry adapted basis functions of A   symmetry.
   162 basis functions,   272 primitive gaussians,   169 cartesian basis functions
    25 alpha electrons       25 beta electrons
       nuclear repulsion energy       270.7331185305 Hartrees.
 NAtoms=   13 NActive=   13 NUniq=   13 SFac= 1.00D+00 NAtFMM=   60 NAOKFM=F Big=F
 Integral buffers will be    131072 words long.
 Raffenetti 2 integral format.
 Two-electron integral symmetry is turned on.
 One-electron integrals computed using PRISM.
 NBasis=   162 RedAO= T EigKep=  2.23D-04  NBF=   162
 NBsUse=   162 1.00D-06 EigRej= -1.00D+00 NBFU=   162
 Initial guess from the checkpoint file:  "1_#_m062x_6-311G_d_p_geom_allcheck_guess_read.chk"
 B after Tr=     0.000000    0.000000    0.000000
         Rot=    1.000000    0.000000   -0.000000   -0.000000 Ang=   0.00 deg.
 Requested convergence on RMS density matrix=1.00D-08 within 128 cycles.
 Requested convergence on MAX density matrix=1.00D-06.
 Requested convergence on             energy=1.00D-06.
 No special actions if energy rises.
 SCF Done:  E(RM062X) =  -307.416976143     A.U. after   11 cycles
            NFock= 11  Conv=0.72D-08     -V/T= 2.0040

 **********************************************************************

            Population analysis using the SCF density.

 **********************************************************************

 Orbital symmetries:
       Occupied  (A) (A) (A) (A) (A) (A) (A) (A) (A) (A) (A) (A)
                 (A) (A) (A) (A) (A) (A) (A) (A) (A) (A) (A) (A)
                 (A)
       Virtual   (A) (A) (A) (A) (A) (A) (A) (A) (A) (A) (A) (A)
                 (A) (A) (A) (A) (A) (A) (A) (A) (A) (A) (A) (A)
                 (A) (A) (A) (A) (A) (A) (A) (A) (A) (A) (A) (A)
                 (A) (A) (A) (A) (A) (A) (A) (A) (A) (A) (A) (A)
                 (A) (A) (A) (A) (A) (A) (A) (A) (A) (A) (A) (A)
                 (A) (A) (A) (A) (A) (A) (A) (A) (A) (A) (A) (A)
                 (A) (A) (A) (A) (A) (A) (A) (A) (A) (A) (A) (A)
                 (A) (A) (A) (A) (A) (A) (A) (A) (A) (A) (A) (A)
                 (A) (A) (A) (A) (A) (A) (A) (A) (A) (A) (A) (A)
                 (A) (A) (A) (A) (A) (A) (A) (A) (A) (A) (A) (A)
                 (A) (A) (A) (A) (A) (A) (A) (A) (A) (A) (A) (A)
                 (A) (A) (A) (A) (A)
 The electronic state is 1-A.
 Alpha  occ. eigenvalues --  -19.64815 -10.60764 -10.54818 -10.54609 -10.54523
 Alpha  occ. eigenvalues --  -10.53913 -10.53756  -1.18277  -0.95561  -0.84673
 Alpha  occ. eigenvalues --   -0.83441  -0.70927  -0.68640  -0.62155  -0.57445
 Alpha  occ. eigenvalues --   -0.54101  -0.50733  -0.49180  -0.49093  -0.46365
 Alpha  occ. eigenvalues --   -0.42346  -0.41021  -0.40153  -0.31031  -0.27977
 Alpha virt. eigenvalues --    0.02340   0.04060   0.06488   0.08400   0.11303
 Alpha virt. eigenvalues --    0.12882   0.15384   0.16569   0.20674   0.25740
 Alpha virt. eigenvalues --    0.28654   0.31009   0.32721   0.34399   0.38856
 Alpha virt. eigenvalues --    0.41261   0.42685   0.43273   0.45010   0.47272
 Alpha virt. eigenvalues --    0.47771   0.48602   0.48689   0.49394   0.49596
 Alpha virt. eigenvalues --    0.55538   0.56714   0.57631   0.60584   0.64733
 Alpha virt. eigenvalues --    0.65128   0.65658   0.66295   0.67584   0.71519
 Alpha virt. eigenvalues --    0.73512   0.76813   0.77874   0.81647   0.83983
 Alpha virt. eigenvalues --    0.86917   0.88580   0.88718   0.91849   0.93519
 Alpha virt. eigenvalues --    1.02599   1.03142   1.03877   1.05752   1.09320
 Alpha virt. eigenvalues --    1.13260   1.15827   1.18870   1.24938   1.25597
 Alpha virt. eigenvalues --    1.32500   1.43949   1.45444   1.48287   1.50703
 Alpha virt. eigenvalues --    1.53344   1.58130   1.59184   1.59802   1.63070
 Alpha virt. eigenvalues --    1.63715   1.63860   1.66701   1.71844   1.76805
 Alpha virt. eigenvalues --    1.78941   1.80556   1.80738   1.85381   1.93104
 Alpha virt. eigenvalues --    1.93498   1.94311   1.94811   1.95299   1.96806
 Alpha virt. eigenvalues --    1.99968   1.99993   2.03649   2.05769   2.10303
 Alpha virt. eigenvalues --    2.28993   2.29064   2.32286   2.35090   2.35557
 Alpha virt. eigenvalues --    2.39906   2.47497   2.50319   2.60312   2.61061
 Alpha virt. eigenvalues --    2.62335   2.62717   2.63913   2.66207   2.66784
 Alpha virt. eigenvalues --    2.69649   2.74498   2.77113   2.82255   2.83740
 Alpha virt. eigenvalues --    2.88805   2.90281   2.93630   3.07844   3.10377
 Alpha virt. eigenvalues --    3.15580   3.15586   3.23513   3.36276   3.39988
 Alpha virt. eigenvalues --    3.45562   3.51482   3.52884   3.59349   3.67598
 Alpha virt. eigenvalues --    3.88847   3.99537   4.03444   4.11001   4.13714
 Alpha virt. eigenvalues --    4.14176   4.84662   4.93362   5.43114   5.77176
 Alpha virt. eigenvalues --   23.56001  23.97895  24.01233  24.13279  24.16577
 Alpha virt. eigenvalues --   24.25037  50.01470
          Condensed to atoms (all electrons):
               1          2          3          4          5          6
     1  O    7.857191   0.350889  -0.061281   0.003747  -0.000186   0.006430
     2  C    0.350889   4.795026   0.514662  -0.055298  -0.040281  -0.020296
     3  C   -0.061281   0.514662   4.920138   0.535071  -0.071624  -0.028790
     4  C    0.003747  -0.055298   0.535071   4.865446   0.522906  -0.064891
     5  C   -0.000186  -0.040281  -0.071624   0.522906   4.915363   0.528510
     6  C    0.006430  -0.020296  -0.028790  -0.064891   0.528510   4.910619
     7  C   -0.077562   0.422594  -0.070479  -0.033189  -0.066459   0.439202
     8  H    0.325481  -0.047088   0.007987  -0.000609   0.000012   0.001147
     9  H    0.002686  -0.044203   0.407084  -0.033540   0.007222  -0.001732
    10  H   -0.000118   0.008416  -0.042011   0.418836  -0.043055   0.007691
    11  H    0.000007  -0.000764   0.007316  -0.042295   0.419984  -0.042571
    12  H   -0.000110   0.006029  -0.000366   0.006771  -0.039451   0.412585
    13  H   -0.004294  -0.049512   0.005260  -0.000181   0.006360  -0.022820
               7          8          9         10         11         12
     1  O   -0.077562   0.325481   0.002686  -0.000118   0.000007  -0.000110
     2  C    0.422594  -0.047088  -0.044203   0.008416  -0.000764   0.006029
     3  C   -0.070479   0.007987   0.407084  -0.042011   0.007316  -0.000366
     4  C   -0.033189  -0.000609  -0.033540   0.418836  -0.042295   0.006771
     5  C   -0.066459   0.000012   0.007222  -0.043055   0.419984  -0.039451
     6  C    0.439202   0.001147  -0.001732   0.007691  -0.042571   0.412585
     7  C    5.164298  -0.005376   0.010026  -0.001149   0.008338  -0.035579
     8  H   -0.005376   0.450904  -0.000683   0.000037  -0.000007  -0.000028
     9  H    0.010026  -0.000683   0.520411  -0.007962  -0.000207   0.000068
    10  H   -0.001149   0.000037  -0.007962   0.536998  -0.006947  -0.000317
    11  H    0.008338  -0.000007  -0.000207  -0.006947   0.538198  -0.006780
    12  H   -0.035579  -0.000028   0.000068  -0.000317  -0.006780   0.536015
    13  H    0.406025   0.004404  -0.000335   0.000055  -0.000256  -0.007332
              13
     1  O   -0.004294
     2  C   -0.049512
     3  C    0.005260
     4  C   -0.000181
     5  C    0.006360
     6  C   -0.022820
     7  C    0.406025
     8  H    0.004404
     9  H   -0.000335
    10  H    0.000055
    11  H   -0.000256
    12  H   -0.007332
    13  H    0.537757
 Mulliken charges:
               1
     1  O   -0.402879
     2  C    0.159828
     3  C   -0.122967
     4  C   -0.122772
     5  C   -0.139301
     6  C   -0.125084
     7  C   -0.160689
     8  H    0.263821
     9  H    0.141165
    10  H    0.129528
    11  H    0.125984
    12  H    0.128495
    13  H    0.124872
 Sum of Mulliken charges =  -0.00000
 Mulliken charges with hydrogens summed into heavy atoms:
               1
     1  O   -0.139058
     2  C    0.159828
     3  C    0.018197
     4  C    0.006756
     5  C   -0.013316
     6  C    0.003410
     7  C   -0.035817
 Electronic spatial extent (au):  <R**2>=            666.9827
 Charge=             -0.0000 electrons
 Dipole moment (field-independent basis, Debye):
    X=              0.0425    Y=              1.3772    Z=              0.0000  Tot=              1.3778
 Quadrupole moment (field-independent basis, Debye-Ang):
   XX=            -37.1069   YY=            -35.2713   ZZ=            -45.2627
   XY=             -4.4984   XZ=             -0.0000   YZ=              0.0000
 Traceless Quadrupole moment (field-independent basis, Debye-Ang):
   XX=              2.1068   YY=              3.9423   ZZ=             -6.0491
   XY=             -4.4984   XZ=             -0.0000   YZ=              0.0000
 Octapole moment (field-independent basis, Debye-Ang**2):
  XXX=             -8.3070  YYY=              0.3093  ZZZ=              0.0000  XYY=             -5.0725
  XXY=             12.8810  XXZ=              0.0000  XZZ=             -6.1252  YZZ=             -0.0433
  YYZ=              0.0000  XYZ=             -0.0000
 Hexadecapole moment (field-independent basis, Debye-Ang**3):
 XXXX=           -476.4811 YYYY=           -272.1204 ZZZZ=            -49.0619 XXXY=            -37.4170
 XXXZ=             -0.0000 YYYX=             -2.9821 YYYZ=             -0.0000 ZZZX=             -0.0000
 ZZZY=             -0.0000 XXYY=           -117.8640 XXZZ=           -103.2937 YYZZ=            -65.3230
 XXYZ=              0.0000 YYXZ=             -0.0000 ZZXY=             -0.5458
 N-N= 2.707331185305D+02 E-N=-1.257867456128D+03  KE= 3.061907471839D+02
 1\1\GINC-MACMINIM12022MAC-MINI-2\SP\RM062X\6-311G(d,p)\C6H6O1\MACMINI_
 M1_2022\27-May-2024\0\\# m062x/6-311G(d,p) geom=allcheck guess=read\\S
 miles:Oc1ccccc1\\0,1\O,0,2.4078027375,-0.6564184626,0.1959046616\C,0,1
 .0894104956,-0.3018066063,0.0907445792\C,0,0.1382339057,-1.2282134094,
 0.5328834738\C,0,-1.2162515985,-0.9165647198,0.4479226834\C,0,-1.63616
 7554,0.3109741896,-0.0739365703\C,0,-0.681653075,1.2287085444,-0.51240
 27169\C,0,0.6794199394,0.9285833169,-0.4327419022\H,0,2.9550676879,0.0
 688934153,-0.1427392375\H,0,0.4791143793,-2.1769922945,0.9356127708\H,
 0,-1.9507042599,-1.6397341725,0.7927573793\H,0,-2.694189044,0.54748359
 63,-0.1372664247\H,0,-0.9915348524,2.1871711192,-0.9205556597\H,0,1.42
 14542388,1.6479154899,-0.776184022\\Version=EM64M-G16RevA.03\State=1-A
 \HF=-307.4169761\RMSD=7.165e-09\Dipole=0.0951738,0.4874583,-0.2172077\
 Quadrupole=2.9631553,0.4711013,-3.4342566,2.9490433,-1.5762974,-2.2892
 812\PG=C01 [X(C6H6O1)]\\@


 Human beings, who are almost unique in having the
 ability to learn from the experience of others, are
 also remarkable for their apparent disinclination to do so.
                               -- Douglas Adams,
                                Last Chance to See
 Job cpu time:       0 days  0 hours  0 minutes  9.2 seconds.
 Elapsed time:       0 days  0 hours  0 minutes  9.4 seconds.
 File lengths (MBytes):  RWF=     20 Int=      0 D2E=      0 Chk=      4 Scr=      1
 Normal termination of Gaussian 16 at Mon May 27 11:59:50 2024.
