 Entering Gaussian System, Link 0=g16
 Input=/Users/macmini_m1_2022/Poclab/ichizawa/Gaussian/20240527_1_500/2_#_mp2_6-31G_d_geom_allcheck_guess_read.gjf
 Output=/Users/macmini_m1_2022/Poclab/ichizawa/Gaussian/20240527_1_500/2_#_mp2_6-31G_d_geom_allcheck_guess_read.log
 Initial command:
 /Applications/g16/l1.exe "/Users/macmini_m1_2022/Poclab/ichizawa/Gaussian/20240527_1_500/Gau-63117.inp" -scrdir="/Users/macmini_m1_2022/Poclab/ichizawa/Gaussian/20240527_1_500/"
 Entering Link 1 = /Applications/g16/l1.exe PID=     63118.
  
 Copyright (c) 1988,1990,1992,1993,1995,1998,2003,2009,2016,
            Gaussian, Inc.  All Rights Reserved.
  
 This is part of the Gaussian(R) 16 program.  It is based on
 the Gaussian(R) 09 system (copyright 2009, Gaussian, Inc.),
 the Gaussian(R) 03 system (copyright 2003, Gaussian, Inc.),
 the Gaussian(R) 98 system (copyright 1998, Gaussian, Inc.),
 the Gaussian(R) 94 system (copyright 1995, Gaussian, Inc.),
 the Gaussian 92(TM) system (copyright 1992, Gaussian, Inc.),
 the Gaussian 90(TM) system (copyright 1990, Gaussian, Inc.),
 the Gaussian 88(TM) system (copyright 1988, Gaussian, Inc.),
 the Gaussian 86(TM) system (copyright 1986, Carnegie Mellon
 University), and the Gaussian 82(TM) system (copyright 1983,
 Carnegie Mellon University). Gaussian is a federally registered
 trademark of Gaussian, Inc.
  
 This software contains proprietary and confidential information,
 including trade secrets, belonging to Gaussian, Inc.
  
 This software is provided under written license and may be
 used, copied, transmitted, or stored only in accord with that
 written license.
  
 The following legend is applicable only to US Government
 contracts under FAR:
  
                    RESTRICTED RIGHTS LEGEND
  
 Use, reproduction and disclosure by the US Government is
 subject to restrictions as set forth in subparagraphs (a)
 and (c) of the Commercial Computer Software - Restricted
 Rights clause in FAR 52.227-19.
  
 Gaussian, Inc.
 340 Quinnipiac St., Bldg. 40, Wallingford CT 06492
  
  
 ---------------------------------------------------------------
 Warning -- This program may not be used in any manner that
 competes with the business of Gaussian, Inc. or will provide
 assistance to any competitor of Gaussian, Inc.  The licensee
 of this program is prohibited from giving any competitor of
 Gaussian, Inc. access to this program.  By using this program,
 the user acknowledges that Gaussian, Inc. is engaged in the
 business of creating and licensing software in the field of
 computational chemistry and represents and warrants to the
 licensee that it is not a competitor of Gaussian, Inc. and that
 it will not use this program in any manner prohibited above.
 ---------------------------------------------------------------
  

 Cite this work as:
 Gaussian 16, Revision A.03,
 M. J. Frisch, G. W. Trucks, H. B. Schlegel, G. E. Scuseria, 
 M. A. Robb, J. R. Cheeseman, G. Scalmani, V. Barone, 
 G. A. Petersson, H. Nakatsuji, X. Li, M. Caricato, A. V. Marenich, 
 J. Bloino, B. G. Janesko, R. Gomperts, B. Mennucci, H. P. Hratchian, 
 J. V. Ortiz, A. F. Izmaylov, J. L. Sonnenberg, D. Williams-Young, 
 F. Ding, F. Lipparini, F. Egidi, J. Goings, B. Peng, A. Petrone, 
 T. Henderson, D. Ranasinghe, V. G. Zakrzewski, J. Gao, N. Rega, 
 G. Zheng, W. Liang, M. Hada, M. Ehara, K. Toyota, R. Fukuda, 
 J. Hasegawa, M. Ishida, T. Nakajima, Y. Honda, O. Kitao, H. Nakai, 
 T. Vreven, K. Throssell, J. A. Montgomery, Jr., J. E. Peralta, 
 F. Ogliaro, M. J. Bearpark, J. J. Heyd, E. N. Brothers, K. N. Kudin, 
 V. N. Staroverov, T. A. Keith, R. Kobayashi, J. Normand, 
 K. Raghavachari, A. P. Rendell, J. C. Burant, S. S. Iyengar, 
 J. Tomasi, M. Cossi, J. M. Millam, M. Klene, C. Adamo, R. Cammi, 
 J. W. Ochterski, R. L. Martin, K. Morokuma, O. Farkas, 
 J. B. Foresman, and D. J. Fox, Gaussian, Inc., Wallingford CT, 2016.
 
 ******************************************
 Gaussian 16:  EM64M-G16RevA.03 25-Dec-2016
                27-May-2024 
 ******************************************
 %Mem=16GB
 %Nprocshared=10
 Will use up to   10 processors via shared memory.
 %oldchk=2_#_m062x_6-311G_d_p_geom_allcheck_guess_read.chk
 %chk=2_#_mp2_6-31G_d_geom_allcheck_guess_read.chk
 Copying data from "2_#_m062x_6-311G_d_p_geom_allcheck_guess_read.chk" to current chk file "2_#_mp2_6-31G_d_geom_allcheck_guess_read.chk"
 IOpt=  2 FromEx=T IUOpen= 4 IOptOp= 5 NList=   0 IFRang= 0 IUIn= 4 IUOut= 2.
 ---------------------------------------
 # mp2/6-31G(d) geom=allcheck guess=read
 ---------------------------------------
 1/29=7,38=1,172=1/1;
 2/12=2,40=1/2;
 3/5=1,6=6,7=1,11=9,14=-4,25=1,30=1,116=-2/1,2,3;
 4/5=1/1;
 5/5=2,38=6/2;
 8/10=2/1;
 9/16=-3/6;
 6/7=2,8=2,9=2,10=2/1;
 99/5=1,9=1/99;
 Structure from the checkpoint file:  "2_#_mp2_6-31G_d_geom_allcheck_guess_read.chk"
 -----------------
 Smiles:Nc1ccccc1O
 -----------------
 Charge =  0 Multiplicity = 1
 Redundant internal coordinates found in file.  (old form).
 N,0,-2.2156937076,0.0557047429,-0.0397288738
 C,0,-0.7790621914,-0.10895456,-0.0163991062
 C,0,-0.1045576367,-1.3301938843,-0.0269482599
 C,0,1.2908627876,-1.3674804212,-0.0019240025
 C,0,2.0105637363,-0.168829349,0.0338831377
 C,0,1.3533415414,1.0597447304,0.0448961097
 C,0,-0.0446751978,1.0922342813,0.0197487999
 O,0,-0.7057760823,2.2748368056,0.0298338995
 H,0,-2.6549765421,-0.392290141,0.7625154886
 H,0,-2.6247642608,-0.3606047502,-0.8743664197
 H,0,-0.6794106725,-2.2538840867,-0.0549215227
 H,0,1.8110848454,-2.3207521172,-0.0102727516
 H,0,3.0970983329,-0.19119042,0.0534850217
 H,0,1.9005497925,1.9969030349,0.0726246364
 H,0,-1.654584745,2.0147571345,0.0075718428
 Recover connectivity data from disk.
                           ----------------------------
                           !    Current Parameters    !
                           ! (Angstroms and Degrees)  !
 --------------------------                            --------------------------
 ! Name  Definition              Value                                          !
 --------------------------------------------------------------------------------
 ! R1    R(1,2)                  1.4462                                         !
 ! R2    R(1,9)                  1.0185                                         !
 ! R3    R(1,10)                 1.0185                                         !
 ! R4    R(2,3)                  1.3952                                         !
 ! R5    R(2,7)                  1.4084                                         !
 ! R6    R(3,4)                  1.3961                                         !
 ! R7    R(3,11)                 1.0883                                         !
 ! R8    R(4,5)                  1.3986                                         !
 ! R9    R(4,12)                 1.086                                          !
 ! R10   R(5,6)                  1.3934                                         !
 ! R11   R(5,13)                 1.0869                                         !
 ! R12   R(6,7)                  1.3986                                         !
 ! R13   R(6,14)                 1.0856                                         !
 ! R14   R(7,8)                  1.3549                                         !
 ! R15   R(8,15)                 0.9841                                         !
 ! A1    A(2,1,9)              111.4488                                         !
 ! A2    A(2,1,10)             111.4488                                         !
 ! A3    A(9,1,10)             107.0065                                         !
 ! A4    A(1,2,3)              125.4357                                         !
 ! A5    A(1,2,7)              114.9164                                         !
 ! A6    A(3,2,7)              119.6478                                         !
 ! A7    A(2,3,4)              120.4276                                         !
 ! A8    A(2,3,11)             119.1931                                         !
 ! A9    A(4,3,11)             120.3793                                         !
 ! A10   A(3,4,5)              119.4655                                         !
 ! A11   A(3,4,12)             120.1375                                         !
 ! A12   A(5,4,12)             120.3971                                         !
 ! A13   A(4,5,6)              120.8751                                         !
 ! A14   A(4,5,13)             119.8171                                         !
 ! A15   A(6,5,13)             119.3078                                         !
 ! A16   A(5,6,7)              119.4601                                         !
 ! A17   A(5,6,14)             121.5758                                         !
 ! A18   A(7,6,14)             118.964                                          !
 ! A19   A(2,7,6)              120.1239                                         !
 ! A20   A(2,7,8)              119.354                                          !
 ! A21   A(6,7,8)              120.5222                                         !
 ! A22   A(7,8,15)             103.8633                                         !
 ! D1    D(9,1,2,3)             59.7031                                         !
 ! D2    D(9,1,2,7)           -120.2942                                         !
 ! D3    D(10,1,2,3)           -59.7677                                         !
 ! D4    D(10,1,2,7)           120.235                                          !
 ! D5    D(1,2,3,4)           -179.9972                                         !
 ! D6    D(1,2,3,11)             0.0022                                         !
 ! D7    D(7,2,3,4)             -0.0001                                         !
 ! D8    D(7,2,3,11)           179.9994                                         !
 ! D9    D(1,2,7,6)            179.9982                                         !
 ! D10   D(1,2,7,8)             -0.0018                                         !
 ! D11   D(3,2,7,6)              0.0008                                         !
 ! D12   D(3,2,7,8)           -179.9992                                         !
 ! D13   D(2,3,4,5)             -0.001                                          !
 ! D14   D(2,3,4,12)           179.9999                                         !
 ! D15   D(11,3,4,5)           179.9996                                         !
 ! D16   D(11,3,4,12)            0.0005                                         !
 ! D17   D(3,4,5,6)              0.0013                                         !
 ! D18   D(3,4,5,13)          -179.9995                                         !
 ! D19   D(12,4,5,6)          -179.9996                                         !
 ! D20   D(12,4,5,13)           -0.0004                                         !
 ! D21   D(4,5,6,7)             -0.0006                                         !
 ! D22   D(4,5,6,14)           179.9989                                         !
 ! D23   D(13,5,6,7)          -179.9998                                         !
 ! D24   D(13,5,6,14)           -0.0003                                         !
 ! D25   D(5,6,7,2)             -0.0005                                         !
 ! D26   D(5,6,7,8)            179.9996                                         !
 ! D27   D(14,6,7,2)          -180.0                                            !
 ! D28   D(14,6,7,8)             0.0001                                         !
 ! D29   D(2,7,8,15)             0.007                                          !
 ! D30   D(6,7,8,15)          -179.993                                          !
 --------------------------------------------------------------------------------
                          Input orientation:                          
 ---------------------------------------------------------------------
 Center     Atomic      Atomic             Coordinates (Angstroms)
 Number     Number       Type             X           Y           Z
 ---------------------------------------------------------------------
      1          7           0       -2.215694    0.055705   -0.039729
      2          6           0       -0.779062   -0.108955   -0.016399
      3          6           0       -0.104558   -1.330194   -0.026948
      4          6           0        1.290863   -1.367480   -0.001924
      5          6           0        2.010564   -0.168829    0.033883
      6          6           0        1.353342    1.059745    0.044896
      7          6           0       -0.044675    1.092234    0.019749
      8          8           0       -0.705776    2.274837    0.029834
      9          1           0       -2.654977   -0.392290    0.762515
     10          1           0       -2.624764   -0.360605   -0.874366
     11          1           0       -0.679411   -2.253884   -0.054922
     12          1           0        1.811085   -2.320752   -0.010273
     13          1           0        3.097098   -0.191190    0.053485
     14          1           0        1.900550    1.996903    0.072625
     15          1           0       -1.654585    2.014757    0.007572
 ---------------------------------------------------------------------
                    Distance matrix (angstroms):
                    1          2          3          4          5
     1  N    0.000000
     2  C    1.446225   0.000000
     3  C    2.525425   1.395168   0.000000
     4  C    3.784551   2.422537   1.396143   0.000000
     5  C    4.232858   2.790721   2.413754   1.398576   0.000000
     6  C    3.708540   2.432439   2.800435   2.428481   1.393362
     7  C    2.406502   1.408363   2.423618   2.798987   2.411325
     8  O    2.685002   2.385366   3.655261   4.153799   3.653768
     9  H    1.018462   2.050864   2.829762   4.135821   4.727378
    10  H    1.018466   2.050866   2.830135   4.136072   4.727363
    11  H    2.773914   2.147589   1.088321   2.161133   3.404600
    12  H    4.675827   3.406016   2.156657   1.086015   2.161600
    13  H    5.319343   3.877663   3.399176   2.156204   1.086941
    14  H    4.552399   3.409235   3.885865   3.419993   2.168871
    15  H    2.038374   2.297230   3.686797   4.485006   4.266387
                    6          7          8          9         10
     6  C    0.000000
     7  C    1.398620   0.000000
     8  O    2.390950   1.354882   0.000000
     9  H    4.323193   3.093410   3.383751   0.000000
    10  H    4.322934   3.093064   3.383141   1.637467   0.000000
    11  H    3.888725   3.406607   4.529591   2.834889   2.835559
    12  H    3.411793   3.885000   5.239812   4.925634   4.926012
    13  H    2.146066   3.393974   4.532516   5.799097   5.799079
    14  H    1.085574   2.145955   2.621452   5.190088   5.189711
    15  H    3.156115   1.855534   0.984060   2.713780   2.713191
                   11         12         13         14         15
    11  H    0.000000
    12  H    2.491793   0.000000
    13  H    4.304472   2.488560   0.000000
    14  H    4.974098   4.319377   2.493962   0.000000
    15  H    4.379060   5.550480   5.238970   3.555774   0.000000
 Stoichiometry    C6H7NO
 Framework group  C1[X(C6H7NO)]
 Deg. of freedom    39
 Full point group                 C1      NOp   1
 Largest Abelian subgroup         C1      NOp   1
 Largest concise Abelian subgroup C1      NOp   1
                         Standard orientation:                         
 ---------------------------------------------------------------------
 Center     Atomic      Atomic             Coordinates (Angstroms)
 Number     Number       Type             X           Y           Z
 ---------------------------------------------------------------------
      1          7           0       -1.928792    1.115802   -0.000041
      2          6           0       -0.565999    0.631692    0.000007
      3          6           0        0.576750    1.432077    0.000005
      4          6           0        1.846530    0.851668   -0.000004
      5          6           0        1.966006   -0.541796    0.000010
      6          6           0        0.835555   -1.356374    0.000005
      7          6           0       -0.434447   -0.770513   -0.000002
      8          8           0       -1.548171   -1.542085   -0.000015
      9          1           0       -2.119633    1.691062   -0.818528
     10          1           0       -2.119980    1.690251    0.818939
     11          1           0        0.466496    2.514799    0.000001
     12          1           0        2.732893    1.479194   -0.000007
     13          1           0        2.951778   -0.999721    0.000012
     14          1           0        0.915058   -2.439033   -0.000003
     15          1           0       -2.286064   -0.891017   -0.000134
 ---------------------------------------------------------------------
 Rotational constants (GHZ):           3.3829121           2.2014201           1.3431680
 Standard basis: 6-31G(d) (6D, 7F)
 There are   134 symmetry adapted cartesian basis functions of A   symmetry.
 There are   134 symmetry adapted basis functions of A   symmetry.
   134 basis functions,   252 primitive gaussians,   134 cartesian basis functions
    29 alpha electrons       29 beta electrons
       nuclear repulsion energy       350.2800770320 Hartrees.
 NAtoms=   15 NActive=   15 NUniq=   15 SFac= 1.00D+00 NAtFMM=   60 NAOKFM=F Big=F
 Integral buffers will be    131072 words long.
 Raffenetti 1 integral format.
 Two-electron integral symmetry is turned on.
 One-electron integrals computed using PRISM.
 NBasis=   134 RedAO= T EigKep=  4.08D-04  NBF=   134
 NBsUse=   134 1.00D-06 EigRej= -1.00D+00 NBFU=   134
 Initial guess from the checkpoint file:  "2_#_mp2_6-31G_d_geom_allcheck_guess_read.chk"
 B after Tr=    -0.000000   -0.000000    0.000000
         Rot=    1.000000    0.000000   -0.000000    0.000000 Ang=   0.00 deg.
 Requested convergence on RMS density matrix=1.00D-08 within 128 cycles.
 Requested convergence on MAX density matrix=1.00D-06.
 Requested convergence on             energy=1.00D-06.
 No special actions if energy rises.
 SCF Done:  E(RHF) =  -360.584167880     A.U. after   13 cycles
            NFock= 13  Conv=0.53D-08     -V/T= 2.0025
 ExpMin= 1.61D-01 ExpMax= 5.48D+03 ExpMxC= 8.25D+02 IAcc=3 IRadAn=         5 AccDes= 0.00D+00
 HarFok:  IExCor=  205 AccDes= 0.00D+00 IRadAn=         5 IDoV=-2 UseB2=F ITyADJ=14
 ICtDFT= 12500011 ScaDFX=  1.000000  1.000000  1.000000  1.000000
 Range of M.O.s used for correlation:     9   134
 NBasis=   134 NAE=    29 NBE=    29 NFC=     8 NFV=     0
 NROrb=    126 NOA=    21 NOB=    21 NVA=   105 NVB=   105
 Fully in-core method, ICMem=    92505935.
 JobTyp=1 Pass  1 fully in-core, NPsUse= 10.
 Spin components of T(2) and E(2):
     alpha-alpha T2 =       0.5232992410D-01 E2=     -0.1487886613D+00
     alpha-beta  T2 =       0.2711030380D+00 E2=     -0.8047693941D+00
     beta-beta   T2 =       0.5232992410D-01 E2=     -0.1487886613D+00
 ANorm=    0.1172929191D+01
 E2 =    -0.1102346717D+01 EUMP2 =    -0.36168651459711D+03

 **********************************************************************

            Population analysis using the SCF density.

 **********************************************************************

 Orbital symmetries:
       Occupied  (A) (A) (A) (A) (A) (A) (A) (A) (A) (A) (A) (A)
                 (A) (A) (A) (A) (A) (A) (A) (A) (A) (A) (A) (A)
                 (A) (A) (A) (A) (A)
       Virtual   (A) (A) (A) (A) (A) (A) (A) (A) (A) (A) (A) (A)
                 (A) (A) (A) (A) (A) (A) (A) (A) (A) (A) (A) (A)
                 (A) (A) (A) (A) (A) (A) (A) (A) (A) (A) (A) (A)
                 (A) (A) (A) (A) (A) (A) (A) (A) (A) (A) (A) (A)
                 (A) (A) (A) (A) (A) (A) (A) (A) (A) (A) (A) (A)
                 (A) (A) (A) (A) (A) (A) (A) (A) (A) (A) (A) (A)
                 (A) (A) (A) (A) (A) (A) (A) (A) (A) (A) (A) (A)
                 (A) (A) (A) (A) (A) (A) (A) (A) (A) (A) (A) (A)
                 (A) (A) (A) (A) (A) (A) (A) (A) (A)
 The electronic state is 1-A.
 Alpha  occ. eigenvalues --  -20.57457 -15.57549 -11.29431 -11.26213 -11.24155
 Alpha  occ. eigenvalues --  -11.23820 -11.22746 -11.22525  -1.38877  -1.20690
 Alpha  occ. eigenvalues --   -1.12389  -1.00412  -0.98048  -0.83365  -0.81109
 Alpha  occ. eigenvalues --   -0.71471  -0.68878  -0.67235  -0.64520  -0.61040
 Alpha  occ. eigenvalues --   -0.59041  -0.56744  -0.55827  -0.52822  -0.48836
 Alpha  occ. eigenvalues --   -0.47077  -0.43316  -0.33424  -0.30144
 Alpha virt. eigenvalues --    0.13844   0.16408   0.21451   0.24386   0.29529
 Alpha virt. eigenvalues --    0.29673   0.30581   0.32517   0.33449   0.38813
 Alpha virt. eigenvalues --    0.42706   0.44569   0.49624   0.51212   0.52982
 Alpha virt. eigenvalues --    0.57407   0.72148   0.74020   0.75087   0.75241
 Alpha virt. eigenvalues --    0.78838   0.81095   0.82635   0.83152   0.83443
 Alpha virt. eigenvalues --    0.83999   0.87118   0.89402   0.90629   0.92613
 Alpha virt. eigenvalues --    0.97987   1.00895   1.01539   1.03851   1.08734
 Alpha virt. eigenvalues --    1.10870   1.11624   1.13398   1.17412   1.18207
 Alpha virt. eigenvalues --    1.18787   1.19019   1.21546   1.24462   1.27155
 Alpha virt. eigenvalues --    1.28508   1.29685   1.35394   1.37690   1.40140
 Alpha virt. eigenvalues --    1.47162   1.50289   1.52428   1.61188   1.62269
 Alpha virt. eigenvalues --    1.67584   1.70010   1.72326   1.76267   1.78086
 Alpha virt. eigenvalues --    1.79922   1.97146   2.03281   2.06709   2.08763
 Alpha virt. eigenvalues --    2.09708   2.17112   2.17194   2.20187   2.25666
 Alpha virt. eigenvalues --    2.26534   2.30964   2.34977   2.42140   2.42695
 Alpha virt. eigenvalues --    2.47445   2.51777   2.55993   2.60607   2.60982
 Alpha virt. eigenvalues --    2.62198   2.64536   2.76896   2.79615   2.79733
 Alpha virt. eigenvalues --    2.89444   2.90334   2.95687   3.01798   3.05782
 Alpha virt. eigenvalues --    3.08670   3.12099   3.17937   3.21517   3.35306
 Alpha virt. eigenvalues --    3.53649   3.80154   4.27881   4.45090   4.51698
 Alpha virt. eigenvalues --    4.55131   4.65043   4.77393   4.86612   5.21750
          Condensed to atoms (all electrons):
               1          2          3          4          5          6
     1  N    7.115941   0.255441  -0.065854   0.003344   0.000157   0.003098
     2  C    0.255441   4.843012   0.543369  -0.047655  -0.027347  -0.057517
     3  C   -0.065854   0.543369   4.947110   0.534904  -0.048392  -0.030786
     4  C    0.003344  -0.047655   0.534904   4.935166   0.550776  -0.049981
     5  C    0.000157  -0.027347  -0.048392   0.550776   4.878911   0.543450
     6  C    0.003098  -0.057517  -0.030786  -0.049981   0.543450   4.961492
     7  C   -0.054975   0.548726  -0.038331  -0.025443  -0.041133   0.573837
     8  O   -0.022529  -0.066145   0.004005  -0.000056   0.002385  -0.046559
     9  H    0.331415  -0.037952  -0.000530   0.000110   0.000016  -0.000095
    10  H    0.331396  -0.037948  -0.000527   0.000110   0.000016  -0.000095
    11  H    0.000190  -0.033019   0.375409  -0.023052   0.002315   0.000306
    12  H   -0.000081   0.001321  -0.026728   0.380828  -0.028278   0.002078
    13  H    0.000003   0.000316   0.002516  -0.029491   0.381053  -0.028732
    14  H   -0.000085   0.003750  -0.000087   0.002381  -0.029403   0.375517
    15  H    0.032851  -0.009818   0.000842  -0.000046  -0.000163   0.004002
               7          8          9         10         11         12
     1  N   -0.054975  -0.022529   0.331415   0.331396   0.000190  -0.000081
     2  C    0.548726  -0.066145  -0.037952  -0.037948  -0.033019   0.001321
     3  C   -0.038331   0.004005  -0.000530  -0.000527   0.375409  -0.026728
     4  C   -0.025443  -0.000056   0.000110   0.000110  -0.023052   0.380828
     5  C   -0.041133   0.002385   0.000016   0.000016   0.002315  -0.028278
     6  C    0.573837  -0.046559  -0.000095  -0.000095   0.000306   0.002078
     7  C    4.384866   0.291824   0.001239   0.001231   0.001271   0.000355
     8  O    0.291824   8.362887   0.000417   0.000418  -0.000034   0.000001
     9  H    0.001239   0.000417   0.368876  -0.025992   0.000948  -0.000000
    10  H    0.001231   0.000418  -0.025992   0.368901   0.000946  -0.000000
    11  H    0.001271  -0.000034   0.000948   0.000946   0.475691  -0.001453
    12  H    0.000355   0.000001  -0.000000  -0.000000  -0.001453   0.474157
    13  H    0.001831  -0.000039  -0.000000  -0.000000  -0.000111  -0.001304
    14  H   -0.027399  -0.000150   0.000003   0.000003   0.000010  -0.000095
    15  H   -0.032682   0.254581  -0.000534  -0.000536  -0.000018   0.000000
              13         14         15
     1  N    0.000003  -0.000085   0.032851
     2  C    0.000316   0.003750  -0.009818
     3  C    0.002516  -0.000087   0.000842
     4  C   -0.029491   0.002381  -0.000046
     5  C    0.381053  -0.029403  -0.000163
     6  C   -0.028732   0.375517   0.004002
     7  C    0.001831  -0.027399  -0.032682
     8  O   -0.000039  -0.000150   0.254581
     9  H   -0.000000   0.000003  -0.000534
    10  H   -0.000000   0.000003  -0.000536
    11  H   -0.000111   0.000010  -0.000018
    12  H   -0.001304  -0.000095   0.000000
    13  H    0.471753  -0.001793   0.000003
    14  H   -0.001793   0.459914  -0.000148
    15  H    0.000003  -0.000148   0.258930
 Mulliken charges:
               1
     1  N   -0.930312
     2  C    0.121465
     3  C   -0.196921
     4  C   -0.231893
     5  C   -0.184364
     6  C   -0.250016
     7  C    0.414782
     8  O   -0.781005
     9  H    0.362078
    10  H    0.362077
    11  H    0.200599
    12  H    0.199199
    13  H    0.203995
    14  H    0.217581
    15  H    0.492735
 Sum of Mulliken charges =  -0.00000
 Mulliken charges with hydrogens summed into heavy atoms:
               1
     1  N   -0.206157
     2  C    0.121465
     3  C    0.003678
     4  C   -0.032695
     5  C    0.019631
     6  C   -0.032435
     7  C    0.414782
     8  O   -0.288270
 Electronic spatial extent (au):  <R**2>=            871.3430
 Charge=             -0.0000 electrons
 Dipole moment (field-independent basis, Debye):
    X=             -0.0504    Y=              2.9512    Z=              0.0006  Tot=              2.9516
 Quadrupole moment (field-independent basis, Debye-Ang):
   XX=            -41.9910   YY=            -43.4484   ZZ=            -48.9634
   XY=             -6.1609   XZ=             -0.0020   YZ=              0.0001
 Traceless Quadrupole moment (field-independent basis, Debye-Ang):
   XX=              2.8099   YY=              1.3525   ZZ=             -4.1624
   XY=             -6.1609   XZ=             -0.0020   YZ=              0.0001
 Octapole moment (field-independent basis, Debye-Ang**2):
  XXX=             -8.4948  YYY=             13.6102  ZZZ=              0.0016  XYY=             -1.5571
  XXY=              6.8626  XXZ=              0.0055  XZZ=            -11.6717  YZZ=              2.1693
  YYZ=             -0.0023  XYZ=             -0.0015
 Hexadecapole moment (field-independent basis, Debye-Ang**3):
 XXXX=           -587.5571 YYYY=           -406.5208 ZZZZ=            -53.2782 XXXY=             -7.7931
 XXXZ=             -0.0153 YYYX=            -31.4871 YYYZ=             -0.0071 ZZZX=             -0.0045
 ZZZY=              0.0017 XXYY=           -160.7139 XXZZ=           -117.0599 YYZZ=            -81.7649
 XXYZ=              0.0055 YYXZ=              0.0030 ZZXY=             -6.8895
 N-N= 3.502800770320D+02 E-N=-1.544243464012D+03  KE= 3.596982315900D+02
 1\1\GINC-MACMINIM12022MAC-MINI-2\SP\RMP2-FC\6-31G(d)\C6H7N1O1\MACMINI_
 M1_2022\27-May-2024\0\\# mp2/6-31G(d) geom=allcheck guess=read\\Smiles
 :Nc1ccccc1O\\0,1\N,0,-2.2156937076,0.0557047429,-0.0397288738\C,0,-0.7
 790621914,-0.10895456,-0.0163991062\C,0,-0.1045576367,-1.3301938843,-0
 .0269482599\C,0,1.2908627876,-1.3674804212,-0.0019240025\C,0,2.0105637
 363,-0.168829349,0.0338831377\C,0,1.3533415414,1.0597447304,0.04489610
 97\C,0,-0.0446751978,1.0922342813,0.0197487999\O,0,-0.7057760823,2.274
 8368056,0.0298338995\H,0,-2.6549765421,-0.392290141,0.7625154886\H,0,-
 2.6247642608,-0.3606047502,-0.8743664197\H,0,-0.6794106725,-2.25388408
 67,-0.0549215227\H,0,1.8110848454,-2.3207521172,-0.0102727516\H,0,3.09
 70983329,-0.19119042,0.0534850217\H,0,1.9005497925,1.9969030349,0.0726
 246364\H,0,-1.654584745,2.0147571345,0.0075718428\\Version=EM64M-G16Re
 vA.03\State=1-A\HF=-360.5841679\MP2=-361.6865146\RMSD=5.253e-09\PG=C01
  [X(C6H7N1O1)]\\@


 If your ship doesn't come in, swim out to it!
                          -- Jonathan Winters
 Job cpu time:       0 days  0 hours  0 minutes  3.1 seconds.
 Elapsed time:       0 days  0 hours  0 minutes  3.1 seconds.
 File lengths (MBytes):  RWF=     14 Int=      0 D2E=      0 Chk=      4 Scr=      1
 Normal termination of Gaussian 16 at Mon May 27 12:01:31 2024.
