 Entering Gaussian System, Link 0=g16
 Input=/Users/macmini_m1_2022/Poclab/ichizawa/Gaussian/20240527_1_500/2_#_opt_pm6_MMFF.gjf
 Output=/Users/macmini_m1_2022/Poclab/ichizawa/Gaussian/20240527_1_500/2_#_opt_pm6_MMFF.log
 Initial command:
 /Applications/g16/l1.exe "/Users/macmini_m1_2022/Poclab/ichizawa/Gaussian/20240527_1_500/Gau-63089.inp" -scrdir="/Users/macmini_m1_2022/Poclab/ichizawa/Gaussian/20240527_1_500/"
 Entering Link 1 = /Applications/g16/l1.exe PID=     63090.
  
 Copyright (c) 1988,1990,1992,1993,1995,1998,2003,2009,2016,
            Gaussian, Inc.  All Rights Reserved.
  
 This is part of the Gaussian(R) 16 program.  It is based on
 the Gaussian(R) 09 system (copyright 2009, Gaussian, Inc.),
 the Gaussian(R) 03 system (copyright 2003, Gaussian, Inc.),
 the Gaussian(R) 98 system (copyright 1998, Gaussian, Inc.),
 the Gaussian(R) 94 system (copyright 1995, Gaussian, Inc.),
 the Gaussian 92(TM) system (copyright 1992, Gaussian, Inc.),
 the Gaussian 90(TM) system (copyright 1990, Gaussian, Inc.),
 the Gaussian 88(TM) system (copyright 1988, Gaussian, Inc.),
 the Gaussian 86(TM) system (copyright 1986, Carnegie Mellon
 University), and the Gaussian 82(TM) system (copyright 1983,
 Carnegie Mellon University). Gaussian is a federally registered
 trademark of Gaussian, Inc.
  
 This software contains proprietary and confidential information,
 including trade secrets, belonging to Gaussian, Inc.
  
 This software is provided under written license and may be
 used, copied, transmitted, or stored only in accord with that
 written license.
  
 The following legend is applicable only to US Government
 contracts under FAR:
  
                    RESTRICTED RIGHTS LEGEND
  
 Use, reproduction and disclosure by the US Government is
 subject to restrictions as set forth in subparagraphs (a)
 and (c) of the Commercial Computer Software - Restricted
 Rights clause in FAR 52.227-19.
  
 Gaussian, Inc.
 340 Quinnipiac St., Bldg. 40, Wallingford CT 06492
  
  
 ---------------------------------------------------------------
 Warning -- This program may not be used in any manner that
 competes with the business of Gaussian, Inc. or will provide
 assistance to any competitor of Gaussian, Inc.  The licensee
 of this program is prohibited from giving any competitor of
 Gaussian, Inc. access to this program.  By using this program,
 the user acknowledges that Gaussian, Inc. is engaged in the
 business of creating and licensing software in the field of
 computational chemistry and represents and warrants to the
 licensee that it is not a competitor of Gaussian, Inc. and that
 it will not use this program in any manner prohibited above.
 ---------------------------------------------------------------
  

 Cite this work as:
 Gaussian 16, Revision A.03,
 M. J. Frisch, G. W. Trucks, H. B. Schlegel, G. E. Scuseria, 
 M. A. Robb, J. R. Cheeseman, G. Scalmani, V. Barone, 
 G. A. Petersson, H. Nakatsuji, X. Li, M. Caricato, A. V. Marenich, 
 J. Bloino, B. G. Janesko, R. Gomperts, B. Mennucci, H. P. Hratchian, 
 J. V. Ortiz, A. F. Izmaylov, J. L. Sonnenberg, D. Williams-Young, 
 F. Ding, F. Lipparini, F. Egidi, J. Goings, B. Peng, A. Petrone, 
 T. Henderson, D. Ranasinghe, V. G. Zakrzewski, J. Gao, N. Rega, 
 G. Zheng, W. Liang, M. Hada, M. Ehara, K. Toyota, R. Fukuda, 
 J. Hasegawa, M. Ishida, T. Nakajima, Y. Honda, O. Kitao, H. Nakai, 
 T. Vreven, K. Throssell, J. A. Montgomery, Jr., J. E. Peralta, 
 F. Ogliaro, M. J. Bearpark, J. J. Heyd, E. N. Brothers, K. N. Kudin, 
 V. N. Staroverov, T. A. Keith, R. Kobayashi, J. Normand, 
 K. Raghavachari, A. P. Rendell, J. C. Burant, S. S. Iyengar, 
 J. Tomasi, M. Cossi, J. M. Millam, M. Klene, C. Adamo, R. Cammi, 
 J. W. Ochterski, R. L. Martin, K. Morokuma, O. Farkas, 
 J. B. Foresman, and D. J. Fox, Gaussian, Inc., Wallingford CT, 2016.
 
 ******************************************
 Gaussian 16:  EM64M-G16RevA.03 25-Dec-2016
                27-May-2024 
 ******************************************
 %Mem=16GB
 %Nprocshared=10
 Will use up to   10 processors via shared memory.
 %chk=2_#_opt_pm6_MMFF.chk
 ---------
 # opt pm6
 ---------
 1/18=20,19=15,26=1,38=1/1,3;
 2/9=110,12=2,17=6,18=5,40=1/2;
 3/5=2,25=1,41=3900000,71=1/1,2,3;
 4/35=1/1;
 5/5=2,35=1,38=5/2;
 6/7=2,8=2,9=2,10=2,28=1/1;
 7//1,2,3,16;
 1/18=20,19=15,26=1/3(2);
 2/9=110/2;
 99//99;
 2/9=110/2;
 3/5=2,25=1,41=3900000,71=1,135=20/1,2,3;
 4/5=5,16=3,35=1/1;
 5/5=2,35=1,38=5/2;
 7//1,2,3,16;
 1/18=20,19=15,26=1/3(-5);
 2/9=110/2;
 6/7=2,8=2,9=2,10=2,19=2,28=1/1;
 99/9=1/99;
 -----------------
 Smiles:Nc1ccccc1O
 -----------------
 Symbolic Z-matrix:
 Charge =  0 Multiplicity = 1
 N                    -2.21454  -0.1139    0.06356 
 C                    -0.807    -0.15041  -0.01098 
 C                    -0.10783  -1.34571   0.15775 
 C                     1.29112  -1.35461   0.12991 
 C                     2.00067  -0.16208  -0.0269 
 C                     1.31494   1.04667  -0.12492 
 C                    -0.07364   1.04162  -0.08363 
 O                    -0.73018   2.24241  -0.06992 
 H                    -2.62869  -1.03184  -0.07996 
 H                    -2.59846   0.54842  -0.60868 
 H                    -0.63954  -2.28284   0.29441 
 H                     1.8283   -2.29369   0.2371 
 H                     3.08723  -0.17269  -0.04615 
 H                     1.85541   1.98474  -0.2025 
 H                    -1.57777   2.04393   0.37091 
 

 GradGradGradGradGradGradGradGradGradGradGradGradGradGradGradGradGradGrad
 Berny optimization.
 Initialization pass.
                           ----------------------------
                           !    Initial Parameters    !
                           ! (Angstroms and Degrees)  !
 --------------------------                            --------------------------
 ! Name  Definition              Value          Derivative Info.                !
 --------------------------------------------------------------------------------
 ! R1    R(1,2)                  1.41           estimate D2E/DX2                !
 ! R2    R(1,9)                  1.0172         estimate D2E/DX2                !
 ! R3    R(1,10)                 1.0188         estimate D2E/DX2                !
 ! R4    R(2,3)                  1.395          estimate D2E/DX2                !
 ! R5    R(2,7)                  1.4014         estimate D2E/DX2                !
 ! R6    R(3,4)                  1.3993         estimate D2E/DX2                !
 ! R7    R(3,11)                 1.0861         estimate D2E/DX2                !
 ! R8    R(4,5)                  1.3965         estimate D2E/DX2                !
 ! R9    R(4,12)                 1.0872         estimate D2E/DX2                !
 ! R10   R(5,6)                  1.3932         estimate D2E/DX2                !
 ! R11   R(5,13)                 1.0868         estimate D2E/DX2                !
 ! R12   R(6,7)                  1.3892         estimate D2E/DX2                !
 ! R13   R(6,14)                 1.0854         estimate D2E/DX2                !
 ! R14   R(7,8)                  1.3686         estimate D2E/DX2                !
 ! R15   R(8,15)                 0.9758         estimate D2E/DX2                !
 ! A1    A(2,1,9)              112.0621         estimate D2E/DX2                !
 ! A2    A(2,1,10)             110.9852         estimate D2E/DX2                !
 ! A3    A(9,1,10)             109.885          estimate D2E/DX2                !
 ! A4    A(1,2,3)              121.0719         estimate D2E/DX2                !
 ! A5    A(1,2,7)              120.2055         estimate D2E/DX2                !
 ! A6    A(3,2,7)              118.2168         estimate D2E/DX2                !
 ! A7    A(2,3,4)              120.2734         estimate D2E/DX2                !
 ! A8    A(2,3,11)             120.609          estimate D2E/DX2                !
 ! A9    A(4,3,11)             119.1087         estimate D2E/DX2                !
 ! A10   A(3,4,5)              120.3171         estimate D2E/DX2                !
 ! A11   A(3,4,12)             119.8372         estimate D2E/DX2                !
 ! A12   A(5,4,12)             119.8446         estimate D2E/DX2                !
 ! A13   A(4,5,6)              119.9157         estimate D2E/DX2                !
 ! A14   A(4,5,13)             120.1085         estimate D2E/DX2                !
 ! A15   A(6,5,13)             119.9559         estimate D2E/DX2                !
 ! A16   A(5,6,7)              119.1268         estimate D2E/DX2                !
 ! A17   A(5,6,14)             120.6503         estimate D2E/DX2                !
 ! A18   A(7,6,14)             120.1975         estimate D2E/DX2                !
 ! A19   A(2,7,6)              121.8494         estimate D2E/DX2                !
 ! A20   A(2,7,8)              119.6513         estimate D2E/DX2                !
 ! A21   A(6,7,8)              118.464          estimate D2E/DX2                !
 ! A22   A(7,8,15)             104.0492         estimate D2E/DX2                !
 ! D1    D(9,1,2,3)            -19.995          estimate D2E/DX2                !
 ! D2    D(9,1,2,7)            168.3087         estimate D2E/DX2                !
 ! D3    D(10,1,2,3)          -143.2615         estimate D2E/DX2                !
 ! D4    D(10,1,2,7)            45.0422         estimate D2E/DX2                !
 ! D5    D(1,2,3,4)           -177.62           estimate D2E/DX2                !
 ! D6    D(1,2,3,11)             3.4807         estimate D2E/DX2                !
 ! D7    D(7,2,3,4)             -5.763          estimate D2E/DX2                !
 ! D8    D(7,2,3,11)           175.3377         estimate D2E/DX2                !
 ! D9    D(1,2,7,6)            178.3815         estimate D2E/DX2                !
 ! D10   D(1,2,7,8)              0.5771         estimate D2E/DX2                !
 ! D11   D(3,2,7,6)              6.4514         estimate D2E/DX2                !
 ! D12   D(3,2,7,8)           -171.353          estimate D2E/DX2                !
 ! D13   D(2,3,4,5)              1.9212         estimate D2E/DX2                !
 ! D14   D(2,3,4,12)          -178.4611         estimate D2E/DX2                !
 ! D15   D(11,3,4,5)          -179.1631         estimate D2E/DX2                !
 ! D16   D(11,3,4,12)            0.4545         estimate D2E/DX2                !
 ! D17   D(3,4,5,6)              1.5034         estimate D2E/DX2                !
 ! D18   D(3,4,5,13)           179.8829         estimate D2E/DX2                !
 ! D19   D(12,4,5,6)          -178.1142         estimate D2E/DX2                !
 ! D20   D(12,4,5,13)            0.2653         estimate D2E/DX2                !
 ! D21   D(4,5,6,7)             -0.9136         estimate D2E/DX2                !
 ! D22   D(4,5,6,14)           177.2556         estimate D2E/DX2                !
 ! D23   D(13,5,6,7)          -179.2956         estimate D2E/DX2                !
 ! D24   D(13,5,6,14)           -1.1265         estimate D2E/DX2                !
 ! D25   D(5,6,7,2)             -3.1335         estimate D2E/DX2                !
 ! D26   D(5,6,7,8)            174.696          estimate D2E/DX2                !
 ! D27   D(14,6,7,2)           178.6888         estimate D2E/DX2                !
 ! D28   D(14,6,7,8)            -3.4817         estimate D2E/DX2                !
 ! D29   D(2,7,8,15)            23.8479         estimate D2E/DX2                !
 ! D30   D(6,7,8,15)          -154.0306         estimate D2E/DX2                !
 --------------------------------------------------------------------------------
 Trust Radius=3.00D-01 FncErr=1.00D-07 GrdErr=1.00D-07 EigMax=2.50D+02 EigMin=1.00D-04
 Number of steps in this run=     77 maximum allowed number of steps=    100.
 GradGradGradGradGradGradGradGradGradGradGradGradGradGradGradGradGradGrad

                          Input orientation:                          
 ---------------------------------------------------------------------
 Center     Atomic      Atomic             Coordinates (Angstroms)
 Number     Number       Type             X           Y           Z
 ---------------------------------------------------------------------
      1          7           0       -2.214540   -0.113902    0.063557
      2          6           0       -0.807003   -0.150408   -0.010976
      3          6           0       -0.107834   -1.345713    0.157752
      4          6           0        1.291119   -1.354613    0.129912
      5          6           0        2.000665   -0.162082   -0.026903
      6          6           0        1.314938    1.046670   -0.124915
      7          6           0       -0.073641    1.041623   -0.083630
      8          8           0       -0.730183    2.242406   -0.069921
      9          1           0       -2.628689   -1.031842   -0.079962
     10          1           0       -2.598455    0.548422   -0.608682
     11          1           0       -0.639542   -2.282844    0.294409
     12          1           0        1.828299   -2.293691    0.237097
     13          1           0        3.087232   -0.172694   -0.046150
     14          1           0        1.855406    1.984743   -0.202502
     15          1           0       -1.577772    2.043926    0.370912
 ---------------------------------------------------------------------
                    Distance matrix (angstroms):
                    1          2          3          4          5
     1  N    0.000000
     2  C    1.409982   0.000000
     3  C    2.442221   1.395013   0.000000
     4  C    3.719329   2.423236   1.399258   0.000000
     5  C    4.216451   2.807737   2.425046   1.396487   0.000000
     6  C    3.720170   2.438978   2.797799   2.414884   1.393165
     7  C    2.437283   1.401441   2.399752   2.765884   2.398931
     8  O    2.788067   2.394772   3.648801   4.130877   3.638811
     9  H    1.017217   2.024901   2.551418   3.938670   4.710649
    10  H    1.018808   2.013682   3.221546   4.392704   4.689903
    11  H    2.690394   2.160691   1.086095   2.148517   3.401700
    12  H    4.596318   3.405880   2.157213   1.087161   2.154800
    13  H    5.303233   3.894458   3.409692   2.157302   1.086789
    14  H    4.586890   3.418183   3.882787   3.402972   2.158887
    15  H    2.270718   2.356910   3.700785   4.454064   4.222551
                    6          7          8          9         10
     6  C    0.000000
     7  C    1.389202   0.000000
     8  O    2.369669   1.368618   0.000000
     9  H    4.458074   3.290523   3.784855   0.000000
    10  H    3.974535   2.625569   2.578815   1.666641   0.000000
    11  H    3.883489   3.393411   4.540797   2.379467   3.559351
    12  H    3.398912   3.852864   5.216921   4.643009   5.328142
    13  H    2.152691   3.386309   4.517292   5.780228   5.758775
    14  H    1.085406   2.150541   2.601776   5.405729   4.697327
    15  H    3.099699   1.863768   0.975774   3.281473   2.058623
                   11         12         13         14         15
    11  H    0.000000
    12  H    2.468530   0.000000
    13  H    4.296226   2.482694   0.000000
    14  H    4.968298   4.301044   2.489252   0.000000
    15  H    4.427987   5.516715   5.181661   3.481238   0.000000
 Stoichiometry    C6H7NO
 Framework group  C1[X(C6H7NO)]
 Deg. of freedom    39
 Full point group                 C1      NOp   1
 Largest Abelian subgroup         C1      NOp   1
 Largest concise Abelian subgroup C1      NOp   1
                         Standard orientation:                         
 ---------------------------------------------------------------------
 Center     Atomic      Atomic             Coordinates (Angstroms)
 Number     Number       Type             X           Y           Z
 ---------------------------------------------------------------------
      1          7           0       -1.868822    1.215483   -0.023712
      2          6           0       -0.583263    0.640006    0.041198
      3          6           0        0.563948    1.427981   -0.053995
      4          6           0        1.830894    0.834266   -0.037428
      5          6           0        1.957648   -0.554612    0.034180
      6          6           0        0.818286   -1.355989    0.057812
      7          6           0       -0.433034   -0.753304    0.028664
      8          8           0       -1.540298   -1.552938   -0.058895
      9          1           0       -1.852621    2.211200    0.183693
     10          1           0       -2.513355    0.740694    0.606464
     11          1           0        0.487995    2.509161   -0.123882
     12          1           0        2.720718    1.456918   -0.086795
     13          1           0        2.943319   -1.012266    0.044922
     14          1           0        0.902975   -2.438032    0.068624
     15          1           0       -2.211755   -0.982642   -0.478471
 ---------------------------------------------------------------------
 Rotational constants (GHZ):           3.3218290           2.2530173           1.3486274
 Standard basis: VSTO-6G (5D, 7F)
 There are    39 symmetry adapted cartesian basis functions of A   symmetry.
 There are    39 symmetry adapted basis functions of A   symmetry.
    39 basis functions,   234 primitive gaussians,    39 cartesian basis functions
    21 alpha electrons       21 beta electrons
       nuclear repulsion energy       209.2335880651 Hartrees.
 Integral buffers will be    131072 words long.
 Regular integral format.
 Two-electron integral symmetry is turned off.
 Do NDO integrals.
 One-electron integrals computed using PRISM.
 NBasis=    39 RedAO= F EigKep=  0.00D+00  NBF=    39
 NBsUse=    39 1.00D-04 EigRej=  0.00D+00 NBFU=    39
 Simple Huckel Guess.
 Keep J ints in memory in canonical form, NReq=863247.
 Overlap will be assumed to be unity.
 Requested convergence on RMS density matrix=1.00D-08 within 128 cycles.
 Requested convergence on MAX density matrix=1.00D-06.
 Requested convergence on             energy=1.00D-06.
 No special actions if energy rises.
 SCF Done:  E(RPM6) = -0.249866163613E-01 A.U. after   17 cycles
            NFock= 16  Conv=0.32D-08     -V/T= 0.9997

 **********************************************************************

            Population analysis using the SCF density.

 **********************************************************************

 Orbital symmetries:
       Occupied  (A) (A) (A) (A) (A) (A) (A) (A) (A) (A) (A) (A)
                 (A) (A) (A) (A) (A) (A) (A) (A) (A)
       Virtual   (A) (A) (A) (A) (A) (A) (A) (A) (A) (A) (A) (A)
                 (A) (A) (A) (A) (A) (A)
 The electronic state is 1-A.
 Alpha  occ. eigenvalues --   -1.20114  -1.13244  -1.09686  -0.95491  -0.93278
 Alpha  occ. eigenvalues --   -0.80746  -0.79064  -0.69640  -0.65160  -0.62001
 Alpha  occ. eigenvalues --   -0.59031  -0.55996  -0.54692  -0.53745  -0.50657
 Alpha  occ. eigenvalues --   -0.47133  -0.46392  -0.44074  -0.42566  -0.35036
 Alpha  occ. eigenvalues --   -0.31774
 Alpha virt. eigenvalues --    0.00373   0.00865   0.08276   0.09332   0.10919
 Alpha virt. eigenvalues --    0.13998   0.15501   0.17001   0.17387   0.18161
 Alpha virt. eigenvalues --    0.19193   0.20281   0.20346   0.21319   0.22246
 Alpha virt. eigenvalues --    0.22475   0.22786   0.23036
          Condensed to atoms (all electrons):
               1          2          3          4          5          6
     1  N    5.474190   0.000000   0.000000   0.000000   0.000000   0.000000
     2  C    0.000000   4.003530   0.000000   0.000000   0.000000   0.000000
     3  C    0.000000   0.000000   4.184653   0.000000   0.000000   0.000000
     4  C    0.000000   0.000000   0.000000   4.152908   0.000000   0.000000
     5  C    0.000000   0.000000   0.000000   0.000000   4.125281   0.000000
     6  C    0.000000   0.000000   0.000000   0.000000   0.000000   4.208090
     7  C    0.000000   0.000000   0.000000   0.000000   0.000000   0.000000
     8  O    0.000000   0.000000   0.000000   0.000000   0.000000   0.000000
     9  H    0.000000   0.000000   0.000000   0.000000   0.000000   0.000000
    10  H    0.000000   0.000000   0.000000   0.000000   0.000000   0.000000
    11  H    0.000000   0.000000   0.000000   0.000000   0.000000   0.000000
    12  H    0.000000   0.000000   0.000000   0.000000   0.000000   0.000000
    13  H    0.000000   0.000000   0.000000   0.000000   0.000000   0.000000
    14  H    0.000000   0.000000   0.000000   0.000000   0.000000   0.000000
    15  H    0.000000   0.000000   0.000000   0.000000   0.000000   0.000000
               7          8          9         10         11         12
     1  N    0.000000   0.000000   0.000000   0.000000   0.000000   0.000000
     2  C    0.000000   0.000000   0.000000   0.000000   0.000000   0.000000
     3  C    0.000000   0.000000   0.000000   0.000000   0.000000   0.000000
     4  C    0.000000   0.000000   0.000000   0.000000   0.000000   0.000000
     5  C    0.000000   0.000000   0.000000   0.000000   0.000000   0.000000
     6  C    0.000000   0.000000   0.000000   0.000000   0.000000   0.000000
     7  C    3.801845   0.000000   0.000000   0.000000   0.000000   0.000000
     8  O    0.000000   6.457971   0.000000   0.000000   0.000000   0.000000
     9  H    0.000000   0.000000   0.764857   0.000000   0.000000   0.000000
    10  H    0.000000   0.000000   0.000000   0.775465   0.000000   0.000000
    11  H    0.000000   0.000000   0.000000   0.000000   0.847156   0.000000
    12  H    0.000000   0.000000   0.000000   0.000000   0.000000   0.851048
    13  H    0.000000   0.000000   0.000000   0.000000   0.000000   0.000000
    14  H    0.000000   0.000000   0.000000   0.000000   0.000000   0.000000
    15  H    0.000000   0.000000   0.000000   0.000000   0.000000   0.000000
              13         14         15
     1  N    0.000000   0.000000   0.000000
     2  C    0.000000   0.000000   0.000000
     3  C    0.000000   0.000000   0.000000
     4  C    0.000000   0.000000   0.000000
     5  C    0.000000   0.000000   0.000000
     6  C    0.000000   0.000000   0.000000
     7  C    0.000000   0.000000   0.000000
     8  O    0.000000   0.000000   0.000000
     9  H    0.000000   0.000000   0.000000
    10  H    0.000000   0.000000   0.000000
    11  H    0.000000   0.000000   0.000000
    12  H    0.000000   0.000000   0.000000
    13  H    0.850952   0.000000   0.000000
    14  H    0.000000   0.826564   0.000000
    15  H    0.000000   0.000000   0.675491
 Mulliken charges:
               1
     1  N   -0.474190
     2  C   -0.003530
     3  C   -0.184653
     4  C   -0.152908
     5  C   -0.125281
     6  C   -0.208090
     7  C    0.198155
     8  O   -0.457971
     9  H    0.235143
    10  H    0.224535
    11  H    0.152844
    12  H    0.148952
    13  H    0.149048
    14  H    0.173436
    15  H    0.324509
 Sum of Mulliken charges =  -0.00000
 Mulliken charges with hydrogens summed into heavy atoms:
               1
     1  N   -0.014512
     2  C   -0.003530
     3  C   -0.031809
     4  C   -0.003956
     5  C    0.023767
     6  C   -0.034654
     7  C    0.198155
     8  O   -0.133462
 Charge=             -0.0000 electrons
 Dipole moment (field-independent basis, Debye):
    X=             -0.2729    Y=              1.9674    Z=              0.9878  Tot=              2.2183
 N-N= 2.092335880651D+02 E-N=-3.128351347126D+02  KE=-7.749163369837D+01
 Calling FoFJK, ICntrl=      2127 FMM=F ISym2X=0 I1Cent= 0 IOpClX= 0 NMat=1 NMatS=1 NMatT=0.
 ***** Axes restored to original set *****
 -------------------------------------------------------------------
 Center     Atomic                   Forces (Hartrees/Bohr)
 Number     Number              X              Y              Z
 -------------------------------------------------------------------
      1        7          -0.020339329   -0.000112089   -0.003247979
      2        6           0.010484736   -0.016850183    0.005708761
      3        6           0.009038337   -0.011432148   -0.003564695
      4        6          -0.000282629   -0.001033975    0.001040095
      5        6           0.002127473   -0.003895977    0.000132472
      6        6           0.008071719    0.005037406   -0.000249287
      7        6           0.016407953    0.003863952   -0.001820819
      8        8           0.001635668    0.006918270   -0.004135064
      9        1          -0.003946799    0.001363539    0.000848092
     10        1          -0.005552254   -0.001636000   -0.000987138
     11        1          -0.001314960   -0.001173165    0.000020231
     12        1          -0.000086548   -0.000741706    0.000282999
     13        1           0.001096503    0.000131604   -0.000609359
     14        1          -0.000061969    0.002790413   -0.000497542
     15        1          -0.017277900    0.016770057    0.007079232
 -------------------------------------------------------------------
 Cartesian Forces:  Max     0.020339329 RMS     0.007054266

 GradGradGradGradGradGradGradGradGradGradGradGradGradGradGradGradGradGrad
 Berny optimization.
 FormGI is forming the generalized inverse of G from B-inverse, IUseBI=4.
 Internal  Forces:  Max     0.037030001 RMS     0.008762785
 Search for a local minimum.
 Step number   1 out of a maximum of   77
 All quantities printed in internal units (Hartrees-Bohrs-Radians)
 Mixed Optimization -- RFO/linear search
 Second derivative matrix not updated -- first step.
 ITU=  0
     Eigenvalues ---    0.01560   0.01978   0.02107   0.02114   0.02116
     Eigenvalues ---    0.02127   0.02135   0.02155   0.02160   0.02189
     Eigenvalues ---    0.02208   0.05404   0.15990   0.15995   0.15997
     Eigenvalues ---    0.16000   0.16000   0.16000   0.16000   0.21997
     Eigenvalues ---    0.22451   0.24386   0.24734   0.24985   0.35143
     Eigenvalues ---    0.35186   0.35268   0.35349   0.41915   0.42311
     Eigenvalues ---    0.44006   0.44529   0.44785   0.45677   0.46095
     Eigenvalues ---    0.46617   0.47078   0.51243   0.52214
 RFO step:  Lambda=-1.77346883D-02 EMin= 1.55974225D-02
 Linear search not attempted -- first point.
 Iteration  1 RMS(Cart)=  0.08267064 RMS(Int)=  0.00767823
 Iteration  2 RMS(Cart)=  0.00998567 RMS(Int)=  0.00043346
 Iteration  3 RMS(Cart)=  0.00020431 RMS(Int)=  0.00041120
 Iteration  4 RMS(Cart)=  0.00000010 RMS(Int)=  0.00041120
 Variable       Old X    -DE/DX   Delta X   Delta X   Delta X     New X
                                 (Linear)    (Quad)   (Total)
    R1        2.66448   0.02960   0.00000   0.06465   0.06465   2.72913
    R2        1.92226   0.00026   0.00000   0.00055   0.00055   1.92281
    R3        1.92527   0.00168   0.00000   0.00363   0.00363   1.92890
    R4        2.63619   0.01367   0.00000   0.02919   0.02919   2.66539
    R5        2.64834   0.02966   0.00000   0.06491   0.06503   2.71337
    R6        2.64421   0.00107   0.00000   0.00114   0.00104   2.64526
    R7        2.05242   0.00166   0.00000   0.00448   0.00448   2.05690
    R8        2.63898   0.00354   0.00000   0.00540   0.00529   2.64427
    R9        2.05444   0.00063   0.00000   0.00170   0.00170   2.05613
   R10        2.63270   0.00691   0.00000   0.01337   0.01335   2.64605
   R11        2.05373   0.00111   0.00000   0.00299   0.00299   2.05673
   R12        2.62521   0.00979   0.00000   0.02097   0.02106   2.64627
   R13        2.05112   0.00242   0.00000   0.00651   0.00651   2.05763
   R14        2.58631   0.02832   0.00000   0.05341   0.05341   2.63972
   R15        1.84395   0.01480   0.00000   0.02740   0.02740   1.87135
    A1        1.95585   0.00527   0.00000   0.03484   0.03407   1.98992
    A2        1.93706   0.00708   0.00000   0.04510   0.04432   1.98138
    A3        1.91785  -0.00514   0.00000  -0.01964  -0.02090   1.89695
    A4        2.11310   0.00057   0.00000   0.00146   0.00104   2.11415
    A5        2.09798   0.00277   0.00000   0.00975   0.00929   2.10727
    A6        2.06327  -0.00312   0.00000  -0.00536  -0.00544   2.05783
    A7        2.09917   0.00123   0.00000   0.00412   0.00409   2.10325
    A8        2.10502  -0.00119   0.00000  -0.00528  -0.00528   2.09974
    A9        2.07884  -0.00003   0.00000   0.00128   0.00128   2.08012
   A10        2.09993   0.00285   0.00000   0.00508   0.00492   2.10485
   A11        2.09155  -0.00189   0.00000  -0.00516  -0.00512   2.08643
   A12        2.09168  -0.00095   0.00000   0.00016   0.00019   2.09188
   A13        2.09292   0.00338   0.00000   0.00781   0.00772   2.10064
   A14        2.09629  -0.00146   0.00000  -0.00250  -0.00250   2.09379
   A15        2.09363  -0.00190   0.00000  -0.00496  -0.00495   2.08867
   A16        2.07916   0.00123   0.00000   0.00501   0.00513   2.08429
   A17        2.10574   0.00090   0.00000   0.00612   0.00602   2.11177
   A18        2.09784  -0.00212   0.00000  -0.01083  -0.01091   2.08693
   A19        2.12667  -0.00552   0.00000  -0.01526  -0.01531   2.11136
   A20        2.08831   0.01665   0.00000   0.06025   0.05972   2.14803
   A21        2.06759  -0.01108   0.00000  -0.04336  -0.04386   2.02373
   A22        1.81600   0.03703   0.00000   0.20834   0.20834   2.02435
    D1       -0.34898   0.00311   0.00000   0.07484   0.07547  -0.27351
    D2        2.93754   0.00157   0.00000   0.02752   0.02779   2.96533
    D3       -2.50038   0.00074   0.00000   0.04191   0.04163  -2.45875
    D4        0.78614  -0.00079   0.00000  -0.00541  -0.00605   0.78009
    D5       -3.10005  -0.00098   0.00000  -0.02243  -0.02270  -3.12276
    D6        0.06075  -0.00119   0.00000  -0.02955  -0.02959   0.03116
    D7       -0.10058   0.00100   0.00000   0.02518   0.02485  -0.07574
    D8        3.06022   0.00079   0.00000   0.01807   0.01796   3.07818
    D9        3.11334   0.00123   0.00000   0.03664   0.03694  -3.13290
   D10        0.01007  -0.00044   0.00000  -0.01328  -0.01424  -0.00417
   D11        0.11260  -0.00055   0.00000  -0.00986  -0.00972   0.10287
   D12       -2.99067  -0.00222   0.00000  -0.05978  -0.06090  -3.05158
   D13        0.03353  -0.00086   0.00000  -0.02401  -0.02388   0.00965
   D14       -3.11473  -0.00020   0.00000  -0.00881  -0.00872  -3.12345
   D15       -3.12699  -0.00067   0.00000  -0.01708  -0.01714   3.13906
   D16        0.00793  -0.00001   0.00000  -0.00188  -0.00198   0.00596
   D17        0.02624   0.00043   0.00000   0.00686   0.00697   0.03321
   D18        3.13955   0.00099   0.00000   0.02141   0.02132  -3.12231
   D19       -3.10868  -0.00022   0.00000  -0.00832  -0.00822  -3.11690
   D20        0.00463   0.00033   0.00000   0.00623   0.00613   0.01076
   D21       -0.01595   0.00053   0.00000   0.00979   0.00955  -0.00640
   D22        3.09369   0.00086   0.00000   0.02058   0.02018   3.11387
   D23       -3.12930  -0.00003   0.00000  -0.00478  -0.00480  -3.13410
   D24       -0.01966   0.00030   0.00000   0.00601   0.00584  -0.01383
   D25       -0.05469  -0.00042   0.00000  -0.00814  -0.00785  -0.06255
   D26        3.04902   0.00182   0.00000   0.04340   0.04201   3.09103
   D27        3.11871  -0.00080   0.00000  -0.01919  -0.01865   3.10006
   D28       -0.06077   0.00143   0.00000   0.03234   0.03122  -0.02955
   D29        0.41622   0.00333   0.00000   0.08831   0.08858   0.50480
   D30       -2.68834   0.00163   0.00000   0.03956   0.03929  -2.64905
         Item               Value     Threshold  Converged?
 Maximum Force            0.037030     0.000450     NO 
 RMS     Force            0.008763     0.000300     NO 
 Maximum Displacement     0.609022     0.001800     NO 
 RMS     Displacement     0.089153     0.001200     NO 
 Predicted change in Energy=-9.733026D-03
 GradGradGradGradGradGradGradGradGradGradGradGradGradGradGradGradGradGrad

                          Input orientation:                          
 ---------------------------------------------------------------------
 Center     Atomic      Atomic             Coordinates (Angstroms)
 Number     Number       Type             X           Y           Z
 ---------------------------------------------------------------------
      1          7           0       -2.258565   -0.177637    0.051237
      2          6           0       -0.814973   -0.184673    0.010103
      3          6           0       -0.087363   -1.385050    0.148231
      4          6           0        1.312269   -1.373873    0.128883
      5          6           0        2.013023   -0.171409   -0.016138
      6          6           0        1.322818    1.043705   -0.104235
      7          6           0       -0.076617    1.045139   -0.053726
      8          8           0       -0.688129    2.300677   -0.084637
      9          1           0       -2.680694   -1.095747   -0.067953
     10          1           0       -2.682081    0.466408   -0.617886
     11          1           0       -0.609034   -2.333818    0.259825
     12          1           0        1.857584   -2.311024    0.219711
     13          1           0        3.100920   -0.176630   -0.047897
     14          1           0        1.858361    1.987728   -0.191466
     15          1           0       -1.567519    2.366207    0.365947
 ---------------------------------------------------------------------
                    Distance matrix (angstroms):
                    1          2          3          4          5
     1  N    0.000000
     2  C    1.444195   0.000000
     3  C    2.486236   1.410461   0.000000
     4  C    3.766678   2.439972   1.399810   0.000000
     5  C    4.272124   2.828149   2.431371   1.399289   0.000000
     6  C    3.787103   2.468225   2.819787   2.428814   1.400230
     7  C    2.503417   1.435856   2.438590   2.795348   2.418263
     8  O    2.937137   2.490388   3.741622   4.189213   3.662256
     9  H    1.017509   2.077754   2.618358   4.007474   4.784147
    10  H    1.020728   2.074697   3.278322   4.460844   4.776287
    11  H    2.722789   2.173384   1.088465   2.151754   3.409891
    12  H    4.639224   3.421676   2.155309   1.088058   2.158180
    13  H    5.360401   3.916331   3.415244   2.159610   1.088372
    14  H    4.657982   3.450605   3.908563   3.420702   2.171757
    15  H    2.654756   2.683270   4.038587   4.726264   4.405197
                    6          7          8          9         10
     6  C    0.000000
     7  C    1.400347   0.000000
     8  O    2.371555   1.396882   0.000000
     9  H    4.539458   3.371173   3.937803   0.000000
    10  H    4.078765   2.727938   2.761294   1.656127   0.000000
    11  H    3.907973   3.434987   4.647952   2.435576   3.592933
    12  H    3.412495   3.883263   5.276464   4.706975   5.387416
    13  H    2.157321   3.404334   4.527172   5.854249   5.846493
    14  H    1.088851   2.156754   2.567871   5.488724   4.807480
    15  H    3.213118   2.035714   0.990276   3.662315   2.412346
                   11         12         13         14         15
    11  H    0.000000
    12  H    2.467049   0.000000
    13  H    4.302547   2.484580   0.000000
    14  H    4.996745   4.318372   2.499802   0.000000
    15  H    4.797936   5.799069   5.332129   3.491505   0.000000
 Stoichiometry    C6H7NO
 Framework group  C1[X(C6H7NO)]
 Deg. of freedom    39
 Full point group                 C1      NOp   1
 Largest Abelian subgroup         C1      NOp   1
 Largest concise Abelian subgroup C1      NOp   1
                         Standard orientation:                         
 ---------------------------------------------------------------------
 Center     Atomic      Atomic             Coordinates (Angstroms)
 Number     Number       Type             X           Y           Z
 ---------------------------------------------------------------------
      1          7           0       -1.870458    1.312993   -0.019493
      2          6           0       -0.573530    0.678747    0.018018
      3          6           0        0.612375    1.439201   -0.050838
      4          6           0        1.862350    0.809270   -0.036031
      5          6           0        1.956499   -0.585006    0.035656
      6          6           0        0.798823   -1.372476    0.053594
      7          6           0       -0.455804   -0.752231    0.006934
      8          8           0       -1.559392   -1.607585   -0.034822
      9          1           0       -1.846518    2.315147    0.154975
     10          1           0       -2.550555    0.887329    0.611508
     11          1           0        0.566040    2.525346   -0.104661
     12          1           0        2.767402    1.412099   -0.072744
     13          1           0        2.933816   -1.063090    0.064679
     14          1           0        0.860273   -2.459184    0.083339
     15          1           0       -2.366394   -1.252953   -0.486075
 ---------------------------------------------------------------------
 Rotational constants (GHZ):           3.1344359           2.2156303           1.3033226
 Standard basis: VSTO-6G (5D, 7F)
 There are    39 symmetry adapted cartesian basis functions of A   symmetry.
 There are    39 symmetry adapted basis functions of A   symmetry.
    39 basis functions,   234 primitive gaussians,    39 cartesian basis functions
    21 alpha electrons       21 beta electrons
       nuclear repulsion energy       206.9890621523 Hartrees.
 Integral buffers will be    131072 words long.
 Regular integral format.
 Two-electron integral symmetry is turned off.
 Do NDO integrals.
 One-electron integrals computed using PRISM.
 NBasis=    39 RedAO= F EigKep=  0.00D+00  NBF=    39
 NBsUse=    39 1.00D-04 EigRej=  0.00D+00 NBFU=    39
 Initial guess from the checkpoint file:  "2_#_opt_pm6_MMFF.chk"
 B after Tr=    -0.000000   -0.000000    0.000000
         Rot=    0.999968    0.002642   -0.000111    0.007520 Ang=   0.91 deg.
 Keep J ints in memory in canonical form, NReq=863247.
 Overlap will be assumed to be unity.
 Requested convergence on RMS density matrix=1.00D-08 within 128 cycles.
 Requested convergence on MAX density matrix=1.00D-06.
 Requested convergence on             energy=1.00D-06.
 No special actions if energy rises.
 SCF Done:  E(RPM6) = -0.285850604087E-01 A.U. after   15 cycles
            NFock= 14  Conv=0.87D-08     -V/T= 0.9996
 Calling FoFJK, ICntrl=      2127 FMM=F ISym2X=0 I1Cent= 0 IOpClX= 0 NMat=1 NMatS=1 NMatT=0.
 ***** Axes restored to original set *****
 -------------------------------------------------------------------
 Center     Atomic                   Forces (Hartrees/Bohr)
 Number     Number              X              Y              Z
 -------------------------------------------------------------------
      1        7           0.008797238    0.004433049   -0.000097015
      2        6          -0.001265586    0.004750019    0.000973722
      3        6          -0.002615732    0.006380682   -0.003323348
      4        6          -0.000373976    0.003998639   -0.000301450
      5        6          -0.003418090   -0.001170688   -0.000339738
      6        6          -0.004737043    0.000377248    0.001337174
      7        6          -0.015308422   -0.002196317    0.005247896
      8        8           0.008789915   -0.007077023   -0.004873171
      9        1           0.003277396    0.001275500    0.000449150
     10        1           0.003474236   -0.001880463    0.001233502
     11        1          -0.000798182    0.000918803   -0.000248316
     12        1          -0.000033193   -0.000117223    0.000357746
     13        1          -0.000077130    0.000355060   -0.000165667
     14        1          -0.000694850    0.000403274    0.000136298
     15        1           0.004983419   -0.010450560   -0.000386783
 -------------------------------------------------------------------
 Cartesian Forces:  Max     0.015308422 RMS     0.004265459

 GradGradGradGradGradGradGradGradGradGradGradGradGradGradGradGradGradGrad
 Berny optimization.
 Using GEDIIS/GDIIS optimizer.
 FormGI is forming the generalized inverse of G from B-inverse, IUseBI=4.
 Internal  Forces:  Max     0.021667199 RMS     0.005207922
 Search for a local minimum.
 Step number   2 out of a maximum of   77
 All quantities printed in internal units (Hartrees-Bohrs-Radians)
 Mixed Optimization -- RFO/linear search
 Update second derivatives using D2CorX and points    1    2
 DE= -3.60D-03 DEPred=-9.73D-03 R= 3.70D-01
 Trust test= 3.70D-01 RLast= 3.12D-01 DXMaxT set to 3.00D-01
 ITU=  0  0
 Use linear search instead of GDIIS.
     Eigenvalues ---    0.01561   0.01960   0.02091   0.02115   0.02121
     Eigenvalues ---    0.02131   0.02133   0.02158   0.02159   0.02188
     Eigenvalues ---    0.02208   0.04903   0.15935   0.15998   0.15999
     Eigenvalues ---    0.16000   0.16000   0.16000   0.19249   0.21999
     Eigenvalues ---    0.22566   0.24370   0.24529   0.25458   0.35141
     Eigenvalues ---    0.35185   0.35267   0.35339   0.42283   0.42625
     Eigenvalues ---    0.44398   0.44685   0.44869   0.46025   0.46329
     Eigenvalues ---    0.46966   0.48509   0.52038   0.64169
 RFO step:  Lambda=-4.34867435D-04 EMin= 1.56076282D-02
 Quartic linear search produced a step of -0.37787.
 Iteration  1 RMS(Cart)=  0.03457230 RMS(Int)=  0.00091586
 Iteration  2 RMS(Cart)=  0.00087907 RMS(Int)=  0.00013630
 Iteration  3 RMS(Cart)=  0.00000025 RMS(Int)=  0.00013630
 Variable       Old X    -DE/DX   Delta X   Delta X   Delta X     New X
                                 (Linear)    (Quad)   (Total)
    R1        2.72913  -0.01548  -0.02443   0.00316  -0.02127   2.70786
    R2        1.92281  -0.00256  -0.00021  -0.00334  -0.00355   1.91926
    R3        1.92890  -0.00344  -0.00137  -0.00339  -0.00476   1.92413
    R4        2.66539  -0.00979  -0.01103  -0.00219  -0.01323   2.65216
    R5        2.71337  -0.01911  -0.02457  -0.00181  -0.02644   2.68694
    R6        2.64526  -0.00158  -0.00039  -0.00134  -0.00170   2.64356
    R7        2.05690  -0.00044  -0.00169   0.00093  -0.00076   2.05614
    R8        2.64427  -0.00327  -0.00200  -0.00151  -0.00347   2.64080
    R9        2.05613   0.00011  -0.00064   0.00085   0.00021   2.05634
   R10        2.64605  -0.00315  -0.00504   0.00142  -0.00361   2.64244
   R11        2.05673  -0.00007  -0.00113   0.00101  -0.00012   2.05661
   R12        2.64627  -0.00776  -0.00796  -0.00239  -0.01038   2.63589
   R13        2.05763  -0.00000  -0.00246   0.00249   0.00003   2.05766
   R14        2.63972  -0.02167  -0.02018  -0.00549  -0.02567   2.61405
   R15        1.87135  -0.00529  -0.01036   0.00437  -0.00598   1.86537
    A1        1.98992  -0.00319  -0.01287  -0.00461  -0.01740   1.97252
    A2        1.98138  -0.00288  -0.01675   0.00020  -0.01647   1.96491
    A3        1.89695   0.00241   0.00790  -0.00581   0.00223   1.89918
    A4        2.11415   0.00325  -0.00039   0.00909   0.00885   2.12300
    A5        2.10727  -0.00538  -0.00351  -0.00940  -0.01272   2.09455
    A6        2.05783   0.00215   0.00206   0.00118   0.00323   2.06106
    A7        2.10325  -0.00151  -0.00154  -0.00224  -0.00382   2.09944
    A8        2.09974  -0.00043   0.00199  -0.00459  -0.00259   2.09715
    A9        2.08012   0.00194  -0.00048   0.00696   0.00647   2.08659
   A10        2.10485  -0.00103  -0.00186   0.00205   0.00023   2.10507
   A11        2.08643   0.00040   0.00194  -0.00241  -0.00048   2.08595
   A12        2.09188   0.00063  -0.00007   0.00037   0.00029   2.09217
   A13        2.10064  -0.00177  -0.00292   0.00109  -0.00181   2.09883
   A14        2.09379   0.00127   0.00094   0.00141   0.00236   2.09615
   A15        2.08867   0.00051   0.00187  -0.00244  -0.00056   2.08811
   A16        2.08429  -0.00246  -0.00194  -0.00428  -0.00630   2.07799
   A17        2.11177   0.00207  -0.00228   0.00853   0.00629   2.11806
   A18        2.08693   0.00040   0.00412  -0.00401   0.00014   2.08708
   A19        2.11136   0.00469   0.00579   0.00416   0.00994   2.12130
   A20        2.14803  -0.00438  -0.02257   0.01216  -0.01019   2.13784
   A21        2.02373  -0.00033   0.01657  -0.01657   0.00020   2.02393
   A22        2.02435  -0.01925  -0.07873   0.00008  -0.07864   1.94570
    D1       -0.27351  -0.00037  -0.02852   0.01168  -0.01695  -0.29046
    D2        2.96533  -0.00075  -0.01050   0.00088  -0.00961   2.95572
    D3       -2.45875   0.00145  -0.01573   0.02345   0.00771  -2.45104
    D4        0.78009   0.00107   0.00229   0.01265   0.01505   0.79514
    D5       -3.12276   0.00080   0.00858   0.01236   0.02103  -3.10172
    D6        0.03116   0.00028   0.01118   0.00028   0.01153   0.04268
    D7       -0.07574   0.00076  -0.00939   0.02227   0.01296  -0.06278
    D8        3.07818   0.00023  -0.00678   0.01020   0.00345   3.08162
    D9       -3.13290  -0.00028  -0.01396  -0.01387  -0.02795   3.12233
   D10       -0.00417  -0.00106   0.00538  -0.03760  -0.03183  -0.03599
   D11        0.10287  -0.00072   0.00367  -0.02479  -0.02122   0.08166
   D12       -3.05158  -0.00150   0.02301  -0.04852  -0.02510  -3.07667
   D13        0.00965  -0.00027   0.00903  -0.00943  -0.00045   0.00919
   D14       -3.12345  -0.00049   0.00329  -0.01170  -0.00841  -3.13186
   D15        3.13906   0.00023   0.00648   0.00243   0.00893  -3.13520
   D16        0.00596   0.00002   0.00075   0.00016   0.00097   0.00693
   D17        0.03321  -0.00022  -0.00264  -0.00158  -0.00420   0.02901
   D18       -3.12231  -0.00007  -0.00806   0.00356  -0.00441  -3.12672
   D19       -3.11690  -0.00001   0.00311   0.00068   0.00378  -3.11312
   D20        0.01076   0.00015  -0.00231   0.00582   0.00358   0.01433
   D21       -0.00640  -0.00018  -0.00361  -0.00112  -0.00459  -0.01099
   D22        3.11387   0.00036  -0.00763   0.01191   0.00447   3.11834
   D23       -3.13410  -0.00034   0.00181  -0.00628  -0.00441  -3.13851
   D24       -0.01383   0.00020  -0.00221   0.00675   0.00465  -0.00918
   D25       -0.06255   0.00060   0.00297   0.01460   0.01745  -0.04509
   D26        3.09103   0.00136  -0.01587   0.03652   0.02117   3.11220
   D27        3.10006   0.00005   0.00705   0.00160   0.00847   3.10854
   D28       -0.02955   0.00081  -0.01180   0.02352   0.01219  -0.01736
   D29        0.50480  -0.00015  -0.03347   0.00121  -0.03239   0.47241
   D30       -2.64905  -0.00086  -0.01485  -0.02128  -0.03599  -2.68505
         Item               Value     Threshold  Converged?
 Maximum Force            0.021667     0.000450     NO 
 RMS     Force            0.005208     0.000300     NO 
 Maximum Displacement     0.209791     0.001800     NO 
 RMS     Displacement     0.034596     0.001200     NO 
 Predicted change in Energy=-1.719729D-03
 GradGradGradGradGradGradGradGradGradGradGradGradGradGradGradGradGradGrad

                          Input orientation:                          
 ---------------------------------------------------------------------
 Center     Atomic      Atomic             Coordinates (Angstroms)
 Number     Number       Type             X           Y           Z
 ---------------------------------------------------------------------
      1          7           0       -2.241584   -0.148790    0.075437
      2          6           0       -0.810353   -0.178630    0.012218
      3          6           0       -0.092659   -1.377996    0.139264
      4          6           0        1.306101   -1.368545    0.120933
      5          6           0        2.007920   -0.167516   -0.012687
      6          6           0        1.318229    1.046083   -0.095131
      7          6           0       -0.076027    1.037058   -0.055383
      8          8           0       -0.691312    2.274978   -0.105251
      9          1           0       -2.663899   -1.063548   -0.052519
     10          1           0       -2.649250    0.498072   -0.596966
     11          1           0       -0.621546   -2.322383    0.250135
     12          1           0        1.849786   -2.306818    0.211268
     13          1           0        3.095885   -0.171217   -0.039874
     14          1           0        1.847477    1.994062   -0.177952
     15          1           0       -1.578768    2.255190    0.326509
 ---------------------------------------------------------------------
                    Distance matrix (angstroms):
                    1          2          3          4          5
     1  N    0.000000
     2  C    1.432937   0.000000
     3  C    2.476470   1.403462   0.000000
     4  C    3.751791   2.430451   1.398911   0.000000
     5  C    4.250459   2.818405   2.429153   1.397453   0.000000
     6  C    3.758867   2.458110   2.814553   2.424306   1.398319
     7  C    2.472445   1.421865   2.422943   2.779980   2.407417
     8  O    2.882818   2.459301   3.709770   4.161259   3.641456
     9  H    1.015630   2.054971   2.597486   3.985474   4.757137
    10  H    1.018208   2.051968   3.255430   4.432205   4.740635
    11  H    2.716533   2.165163   1.088063   2.154605   3.409783
    12  H    4.627618   3.412499   2.154295   1.088169   2.156798
    13  H    5.338762   3.906593   3.413974   2.159348   1.088311
    14  H    4.623467   3.438141   3.903272   3.418998   2.173816
    15  H    2.506288   2.571521   3.929838   4.636398   4.341531
                    6          7          8          9         10
     6  C    0.000000
     7  C    1.394852   0.000000
     8  O    2.355534   1.383297   0.000000
     9  H    4.506629   3.333112   3.878097   0.000000
    10  H    4.036464   2.684268   2.689367   1.653872   0.000000
    11  H    3.902372   3.417130   4.611605   2.418154   3.575490
    12  H    3.408575   3.867993   5.248831   4.689207   5.363020
    13  H    2.155212   3.394289   4.508993   5.828510   5.810756
    14  H    1.088865   2.151918   2.555318   5.451351   4.757533
    15  H    3.167382   1.971780   0.987110   3.512149   2.255260
                   11         12         13         14         15
    11  H    0.000000
    12  H    2.471688   0.000000
    13  H    4.304755   2.485282   0.000000
    14  H    4.991096   4.318457   2.503203   0.000000
    15  H    4.677209   5.707906   5.279590   3.473014   0.000000
 Stoichiometry    C6H7NO
 Framework group  C1[X(C6H7NO)]
 Deg. of freedom    39
 Full point group                 C1      NOp   1
 Largest Abelian subgroup         C1      NOp   1
 Largest concise Abelian subgroup C1      NOp   1
                         Standard orientation:                         
 ---------------------------------------------------------------------
 Center     Atomic      Atomic             Coordinates (Angstroms)
 Number     Number       Type             X           Y           Z
 ---------------------------------------------------------------------
      1          7           0       -1.872687    1.273794   -0.038321
      2          6           0       -0.574486    0.669887    0.018941
      3          6           0        0.598271    1.438892   -0.035616
      4          6           0        1.851124    0.816630   -0.025468
      5          6           0        1.953554   -0.576043    0.027886
      6          6           0        0.800767   -1.367431    0.036877
      7          6           0       -0.447732   -0.746252    0.005305
      8          8           0       -1.543524   -1.590113   -0.020159
      9          1           0       -1.855094    2.271714    0.149697
     10          1           0       -2.537567    0.832189    0.593871
     11          1           0        0.538506    2.524257   -0.083484
     12          1           0        2.752398    1.425475   -0.059017
     13          1           0        2.932571   -1.050896    0.049383
     14          1           0        0.859930   -2.454510    0.056523
     15          1           0       -2.322731   -1.157986   -0.444999
 ---------------------------------------------------------------------
 Rotational constants (GHZ):           3.2017474           2.2355075           1.3209706
 Standard basis: VSTO-6G (5D, 7F)
 There are    39 symmetry adapted cartesian basis functions of A   symmetry.
 There are    39 symmetry adapted basis functions of A   symmetry.
    39 basis functions,   234 primitive gaussians,    39 cartesian basis functions
    21 alpha electrons       21 beta electrons
       nuclear repulsion energy       207.8756925052 Hartrees.
 Integral buffers will be    131072 words long.
 Regular integral format.
 Two-electron integral symmetry is turned off.
 Do NDO integrals.
 One-electron integrals computed using PRISM.
 NBasis=    39 RedAO= F EigKep=  0.00D+00  NBF=    39
 NBsUse=    39 1.00D-04 EigRej=  0.00D+00 NBFU=    39
 Initial guess from the checkpoint file:  "2_#_opt_pm6_MMFF.chk"
 B after Tr=     0.000000   -0.000000    0.000000
         Rot=    0.999996   -0.000859    0.000058   -0.002703 Ang=  -0.33 deg.
 Keep J ints in memory in canonical form, NReq=863247.
 Overlap will be assumed to be unity.
 Requested convergence on RMS density matrix=1.00D-08 within 128 cycles.
 Requested convergence on MAX density matrix=1.00D-06.
 Requested convergence on             energy=1.00D-06.
 No special actions if energy rises.
 SCF Done:  E(RPM6) = -0.306374554631E-01 A.U. after   15 cycles
            NFock= 14  Conv=0.19D-08     -V/T= 0.9996
 Calling FoFJK, ICntrl=      2127 FMM=F ISym2X=0 I1Cent= 0 IOpClX= 0 NMat=1 NMatS=1 NMatT=0.
 ***** Axes restored to original set *****
 -------------------------------------------------------------------
 Center     Atomic                   Forces (Hartrees/Bohr)
 Number     Number              X              Y              Z
 -------------------------------------------------------------------
      1        7           0.000033110    0.001706104   -0.001059080
      2        6           0.000947228    0.000067846    0.001837110
      3        6           0.000127287    0.000042178   -0.001772150
      4        6           0.000274455    0.000889866    0.000314354
      5        6          -0.000426430   -0.000638995   -0.000151851
      6        6           0.001920472    0.000386537   -0.000006524
      7        6          -0.003855382    0.000187771    0.001614627
      8        8           0.001986059   -0.001841576   -0.002174201
      9        1          -0.000039954    0.000249448    0.000793542
     10        1           0.000075715   -0.001043309   -0.000128861
     11        1          -0.000303100    0.000035148   -0.000334804
     12        1           0.000039267   -0.000223699    0.000047764
     13        1           0.000150867    0.000098418   -0.000107559
     14        1          -0.000218657    0.000263798    0.000188193
     15        1          -0.000710937   -0.000179535    0.000939440
 -------------------------------------------------------------------
 Cartesian Forces:  Max     0.003855382 RMS     0.001055519

 GradGradGradGradGradGradGradGradGradGradGradGradGradGradGradGradGradGrad
 Berny optimization.
 Using GEDIIS/GDIIS optimizer.
 FormGI is forming the generalized inverse of G from B-inverse, IUseBI=4.
 Internal  Forces:  Max     0.002331360 RMS     0.000569919
 Search for a local minimum.
 Step number   3 out of a maximum of   77
 All quantities printed in internal units (Hartrees-Bohrs-Radians)
 Mixed Optimization -- En-DIIS/RFO-DIIS
 Update second derivatives using D2CorX and points    1    2    3
 DE= -2.05D-03 DEPred=-1.72D-03 R= 1.19D+00
 TightC=F SS=  1.41D+00  RLast= 1.32D-01 DXNew= 5.0454D-01 3.9656D-01
 Trust test= 1.19D+00 RLast= 1.32D-01 DXMaxT set to 3.97D-01
 ITU=  1  0  0
 Use linear search instead of GDIIS.
     Eigenvalues ---    0.01547   0.01965   0.02042   0.02114   0.02115
     Eigenvalues ---    0.02128   0.02133   0.02156   0.02158   0.02187
     Eigenvalues ---    0.02206   0.05148   0.15881   0.15998   0.15999
     Eigenvalues ---    0.15999   0.16000   0.16000   0.18320   0.21998
     Eigenvalues ---    0.22453   0.24125   0.24496   0.25064   0.35138
     Eigenvalues ---    0.35183   0.35266   0.35336   0.42273   0.42448
     Eigenvalues ---    0.44343   0.44675   0.44879   0.46025   0.46148
     Eigenvalues ---    0.46860   0.48801   0.51666   0.61679
 RFO step:  Lambda=-3.02964775D-04 EMin= 1.54692838D-02
 Quartic linear search produced a step of  0.05051.
 Iteration  1 RMS(Cart)=  0.01525442 RMS(Int)=  0.00025101
 Iteration  2 RMS(Cart)=  0.00026408 RMS(Int)=  0.00003063
 Iteration  3 RMS(Cart)=  0.00000009 RMS(Int)=  0.00003063
 Variable       Old X    -DE/DX   Delta X   Delta X   Delta X     New X
                                 (Linear)    (Quad)   (Total)
    R1        2.70786  -0.00007  -0.00107   0.00140   0.00033   2.70819
    R2        1.91926  -0.00031  -0.00018  -0.00063  -0.00081   1.91845
    R3        1.92413  -0.00061  -0.00024  -0.00129  -0.00153   1.92260
    R4        2.65216  -0.00041  -0.00067  -0.00027  -0.00094   2.65122
    R5        2.68694  -0.00180  -0.00134  -0.00266  -0.00399   2.68295
    R6        2.64356   0.00034  -0.00009   0.00083   0.00073   2.64429
    R7        2.05614   0.00008  -0.00004   0.00034   0.00030   2.05644
    R8        2.64080  -0.00029  -0.00018  -0.00042  -0.00060   2.64020
    R9        2.05634   0.00022   0.00001   0.00069   0.00070   2.05704
   R10        2.64244  -0.00001  -0.00018   0.00043   0.00025   2.64269
   R11        2.05661   0.00015  -0.00001   0.00052   0.00051   2.05712
   R12        2.63589   0.00140  -0.00052   0.00391   0.00339   2.63928
   R13        2.05766   0.00011   0.00000   0.00042   0.00042   2.05808
   R14        2.61405  -0.00233  -0.00130  -0.00341  -0.00470   2.60935
   R15        1.86537   0.00105  -0.00030   0.00279   0.00248   1.86785
    A1        1.97252   0.00029  -0.00088   0.00305   0.00216   1.97469
    A2        1.96491   0.00015  -0.00083   0.00210   0.00126   1.96618
    A3        1.89918  -0.00021   0.00011  -0.00145  -0.00136   1.89782
    A4        2.12300   0.00111   0.00045   0.00535   0.00572   2.12872
    A5        2.09455  -0.00120  -0.00064  -0.00395  -0.00469   2.08986
    A6        2.06106   0.00014   0.00016   0.00081   0.00088   2.06195
    A7        2.09944  -0.00005  -0.00019  -0.00036  -0.00058   2.09886
    A8        2.09715  -0.00028  -0.00013  -0.00177  -0.00189   2.09527
    A9        2.08659   0.00033   0.00033   0.00213   0.00247   2.08906
   A10        2.10507   0.00017   0.00001   0.00105   0.00102   2.10610
   A11        2.08595  -0.00017  -0.00002  -0.00109  -0.00111   2.08483
   A12        2.09217  -0.00000   0.00001   0.00004   0.00007   2.09223
   A13        2.09883  -0.00016  -0.00009  -0.00004  -0.00015   2.09868
   A14        2.09615   0.00019   0.00012   0.00078   0.00090   2.09705
   A15        2.08811  -0.00003  -0.00003  -0.00066  -0.00068   2.08743
   A16        2.07799  -0.00047  -0.00032  -0.00150  -0.00182   2.07617
   A17        2.11806   0.00057   0.00032   0.00297   0.00328   2.12134
   A18        2.08708  -0.00009   0.00001  -0.00144  -0.00143   2.08564
   A19        2.12130   0.00040   0.00050   0.00126   0.00171   2.12302
   A20        2.13784   0.00002  -0.00051   0.00097   0.00038   2.13822
   A21        2.02393  -0.00042   0.00001  -0.00251  -0.00256   2.02137
   A22        1.94570  -0.00053  -0.00397   0.00095  -0.00302   1.94268
    D1       -0.29046   0.00098  -0.00086   0.06002   0.05917  -0.23129
    D2        2.95572   0.00049  -0.00049   0.03480   0.03432   2.99004
    D3       -2.45104   0.00092   0.00039   0.05791   0.05829  -2.39275
    D4        0.79514   0.00043   0.00076   0.03269   0.03345   0.82858
    D5       -3.10172   0.00002   0.00106  -0.00302  -0.00204  -3.10377
    D6        0.04268  -0.00004   0.00058  -0.00491  -0.00438   0.03830
    D7       -0.06278   0.00044   0.00065   0.02145   0.02209  -0.04069
    D8        3.08162   0.00037   0.00017   0.01956   0.01976   3.10138
    D9        3.12233   0.00017  -0.00141   0.00670   0.00522   3.12755
   D10       -0.03599  -0.00031  -0.00161  -0.01428  -0.01596  -0.05195
   D11        0.08166  -0.00038  -0.00107  -0.01792  -0.01899   0.06267
   D12       -3.07667  -0.00086  -0.00127  -0.03890  -0.04017  -3.11684
   D13        0.00919  -0.00026  -0.00002  -0.01276  -0.01279  -0.00359
   D14       -3.13186  -0.00013  -0.00042  -0.00569  -0.00611  -3.13797
   D15       -3.13520  -0.00019   0.00045  -0.01089  -0.01047   3.13752
   D16        0.00693  -0.00007   0.00005  -0.00382  -0.00378   0.00315
   D17        0.02901  -0.00002  -0.00021  -0.00043  -0.00063   0.02838
   D18       -3.12672   0.00012  -0.00022   0.00616   0.00596  -3.12076
   D19       -3.11312  -0.00015   0.00019  -0.00753  -0.00734  -3.12046
   D20        0.01433  -0.00001   0.00018  -0.00093  -0.00075   0.01358
   D21       -0.01099   0.00006  -0.00023   0.00409   0.00387  -0.00712
   D22        3.11834   0.00015   0.00023   0.00691   0.00713   3.12547
   D23       -3.13851  -0.00007  -0.00022  -0.00249  -0.00269  -3.14120
   D24       -0.00918   0.00001   0.00023   0.00033   0.00056  -0.00861
   D25       -0.04509   0.00013   0.00088   0.00526   0.00613  -0.03897
   D26        3.11220   0.00058   0.00107   0.02491   0.02594   3.13814
   D27        3.10854   0.00004   0.00043   0.00247   0.00290   3.11144
   D28       -0.01736   0.00049   0.00062   0.02212   0.02272   0.00536
   D29        0.47241   0.00064  -0.00164   0.03079   0.02913   0.50154
   D30       -2.68505   0.00019  -0.00182   0.01094   0.00914  -2.67591
         Item               Value     Threshold  Converged?
 Maximum Force            0.002331     0.000450     NO 
 RMS     Force            0.000570     0.000300     NO 
 Maximum Displacement     0.076217     0.001800     NO 
 RMS     Displacement     0.015285     0.001200     NO 
 Predicted change in Energy=-1.598929D-04
 GradGradGradGradGradGradGradGradGradGradGradGradGradGradGradGradGradGrad

                          Input orientation:                          
 ---------------------------------------------------------------------
 Center     Atomic      Atomic             Coordinates (Angstroms)
 Number     Number       Type             X           Y           Z
 ---------------------------------------------------------------------
      1          7           0       -2.241707   -0.140857    0.080590
      2          6           0       -0.810156   -0.177476    0.024683
      3          6           0       -0.093108   -1.378571    0.132032
      4          6           0        1.306081   -1.368053    0.118134
      5          6           0        2.008546   -0.166822   -0.006654
      6          6           0        1.319231    1.047383   -0.085479
      7          6           0       -0.076816    1.036159   -0.046072
      8          8           0       -0.690529    2.270609   -0.124304
      9          1           0       -2.668183   -1.057452   -0.012187
     10          1           0       -2.645381    0.479591   -0.617399
     11          1           0       -0.624186   -2.323729    0.226153
     12          1           0        1.849222   -2.307947    0.198853
     13          1           0        3.096727   -0.170262   -0.036019
     14          1           0        1.845761    1.997144   -0.168142
     15          1           0       -1.575502    2.260283    0.315808
 ---------------------------------------------------------------------
                    Distance matrix (angstroms):
                    1          2          3          4          5
     1  N    0.000000
     2  C    1.433110   0.000000
     3  C    2.480134   1.402965   0.000000
     4  C    3.754227   2.429952   1.399297   0.000000
     5  C    4.251228   2.818897   2.429921   1.397135   0.000000
     6  C    3.757629   2.459005   2.815539   2.424038   1.398449
     7  C    2.467421   1.419755   2.421344   2.778417   2.407789
     8  O    2.874597   2.455530   3.706634   4.157534   3.638670
     9  H    1.015202   2.056205   2.599025   3.988512   4.760782
    10  H    1.017398   2.052330   3.244767   4.423670   4.738133
    11  H    2.720752   2.163695   1.088222   2.156598   3.411411
    12  H    4.630979   3.411969   2.154263   1.088539   2.156858
    13  H    5.339789   3.907362   3.415157   2.159833   1.088582
    14  H    4.619558   3.438030   3.904454   3.420199   2.176080
    15  H    2.502924   2.571609   3.933513   4.637609   4.340532
                    6          7          8          9         10
     6  C    0.000000
     7  C    1.396648   0.000000
     8  O    2.353067   1.380808   0.000000
     9  H    4.509453   3.331597   3.872941   0.000000
    10  H    4.040232   2.689556   2.696727   1.652060   0.000000
    11  H    3.903636   3.415050   4.608163   2.416234   3.557445
    12  H    3.408808   3.866866   5.245754   4.692038   5.351457
    13  H    2.155133   3.395133   4.506546   5.832826   5.807936
    14  H    1.089088   2.152834   2.551367   5.452574   4.761844
    15  H    3.164117   1.968628   0.988424   3.508403   2.277362
                   11         12         13         14         15
    11  H    0.000000
    12  H    2.473608   0.000000
    13  H    4.307127   2.486188   0.000000
    14  H    4.992599   4.320706   2.505997   0.000000
    15  H    4.682543   5.710616   5.278357   3.465327   0.000000
 Stoichiometry    C6H7NO
 Framework group  C1[X(C6H7NO)]
 Deg. of freedom    39
 Full point group                 C1      NOp   1
 Largest Abelian subgroup         C1      NOp   1
 Largest concise Abelian subgroup C1      NOp   1
                         Standard orientation:                         
 ---------------------------------------------------------------------
 Center     Atomic      Atomic             Coordinates (Angstroms)
 Number     Number       Type             X           Y           Z
 ---------------------------------------------------------------------
      1          7           0       -1.877762    1.264967   -0.043847
      2          6           0       -0.575373    0.669164    0.007198
      3          6           0        0.596086    1.440472   -0.025620
      4          6           0        1.849807    0.819039   -0.019392
      5          6           0        1.954795   -0.573477    0.023761
      6          6           0        0.803245   -1.366940    0.027128
      7          6           0       -0.446732   -0.744703   -0.004526
      8          8           0       -1.539091   -1.589323   -0.003439
      9          1           0       -1.863823    2.268304    0.110279
     10          1           0       -2.528157    0.842198    0.614448
     11          1           0        0.532847    2.526441   -0.055626
     12          1           0        2.750265    1.430263   -0.041705
     13          1           0        2.934467   -1.047473    0.047876
     14          1           0        0.860659   -2.454360    0.045424
     15          1           0       -2.320165   -1.166886   -0.437549
 ---------------------------------------------------------------------
 Rotational constants (GHZ):           3.2084002           2.2354194           1.3219078
 Standard basis: VSTO-6G (5D, 7F)
 There are    39 symmetry adapted cartesian basis functions of A   symmetry.
 There are    39 symmetry adapted basis functions of A   symmetry.
    39 basis functions,   234 primitive gaussians,    39 cartesian basis functions
    21 alpha electrons       21 beta electrons
       nuclear repulsion energy       207.9141199010 Hartrees.
 Integral buffers will be    131072 words long.
 Regular integral format.
 Two-electron integral symmetry is turned off.
 Do NDO integrals.
 One-electron integrals computed using PRISM.
 NBasis=    39 RedAO= F EigKep=  0.00D+00  NBF=    39
 NBsUse=    39 1.00D-04 EigRej=  0.00D+00 NBFU=    39
 Initial guess from the checkpoint file:  "2_#_opt_pm6_MMFF.chk"
 B after Tr=    -0.000000   -0.000000    0.000000
         Rot=    1.000000    0.000128   -0.000048   -0.000894 Ang=   0.10 deg.
 Keep J ints in memory in canonical form, NReq=863247.
 Overlap will be assumed to be unity.
 Requested convergence on RMS density matrix=1.00D-08 within 128 cycles.
 Requested convergence on MAX density matrix=1.00D-06.
 Requested convergence on             energy=1.00D-06.
 No special actions if energy rises.
 SCF Done:  E(RPM6) = -0.308691450859E-01 A.U. after   14 cycles
            NFock= 13  Conv=0.87D-08     -V/T= 0.9996
 Calling FoFJK, ICntrl=      2127 FMM=F ISym2X=0 I1Cent= 0 IOpClX= 0 NMat=1 NMatS=1 NMatT=0.
 ***** Axes restored to original set *****
 -------------------------------------------------------------------
 Center     Atomic                   Forces (Hartrees/Bohr)
 Number     Number              X              Y              Z
 -------------------------------------------------------------------
      1        7          -0.000281813    0.001217395   -0.000054806
      2        6           0.000125187   -0.000701891   -0.000262518
      3        6           0.000449551   -0.000199047   -0.000456532
      4        6          -0.000313571    0.000028828   -0.000042153
      5        6          -0.000331584    0.000313861   -0.000220182
      6        6           0.000914736   -0.000264196    0.000276521
      7        6          -0.000614145    0.000486113    0.000459413
      8        8           0.000595894   -0.000423681   -0.000939744
      9        1           0.000140198   -0.000004542    0.000737387
     10        1           0.000166952   -0.000571286   -0.000401841
     11        1           0.000030083    0.000016346   -0.000146713
     12        1          -0.000006157   -0.000065643    0.000083665
     13        1           0.000028189    0.000026094    0.000082724
     14        1          -0.000205869   -0.000070797    0.000155437
     15        1          -0.000697651    0.000212445    0.000729342
 -------------------------------------------------------------------
 Cartesian Forces:  Max     0.001217395 RMS     0.000432867

 GradGradGradGradGradGradGradGradGradGradGradGradGradGradGradGradGradGrad
 Berny optimization.
 Using GEDIIS/GDIIS optimizer.
 FormGI is forming the generalized inverse of G from B-inverse, IUseBI=4.
 Internal  Forces:  Max     0.000947165 RMS     0.000262309
 Search for a local minimum.
 Step number   4 out of a maximum of   77
 All quantities printed in internal units (Hartrees-Bohrs-Radians)
 Mixed Optimization -- En-DIIS/RFO-DIIS
 Swapping is turned off.
 Update second derivatives using D2CorX and points    1    2    3    4
 DE= -2.32D-04 DEPred=-1.60D-04 R= 1.45D+00
 TightC=F SS=  1.41D+00  RLast= 1.23D-01 DXNew= 6.6693D-01 3.6965D-01
 Trust test= 1.45D+00 RLast= 1.23D-01 DXMaxT set to 3.97D-01
 ITU=  1  1  0  0
     Eigenvalues ---    0.00612   0.01966   0.02029   0.02071   0.02115
     Eigenvalues ---    0.02131   0.02142   0.02158   0.02185   0.02207
     Eigenvalues ---    0.02860   0.05122   0.15835   0.16000   0.16000
     Eigenvalues ---    0.16000   0.16012   0.16288   0.18616   0.22006
     Eigenvalues ---    0.22414   0.23615   0.24658   0.25108   0.35137
     Eigenvalues ---    0.35183   0.35271   0.35370   0.42237   0.42807
     Eigenvalues ---    0.44184   0.44657   0.44870   0.45971   0.46642
     Eigenvalues ---    0.47248   0.48979   0.51094   0.64682
 En-DIIS/RFO-DIIS/Sim-DIIS IScMMF=       -3 using points:     4    3
 RFO step:  Lambda=-3.26549179D-04.
 DidBck=F Rises=F RFO-DIIS coefs:    2.69682   -1.69682
 Iteration  1 RMS(Cart)=  0.03191593 RMS(Int)=  0.00136986
 Iteration  2 RMS(Cart)=  0.00139984 RMS(Int)=  0.00006500
 Iteration  3 RMS(Cart)=  0.00000271 RMS(Int)=  0.00006496
 Iteration  4 RMS(Cart)=  0.00000000 RMS(Int)=  0.00006496
 Variable       Old X    -DE/DX   Delta X   Delta X   Delta X     New X
                                 (Linear)    (Quad)   (Total)
    R1        2.70819   0.00000   0.00055  -0.00106  -0.00051   2.70768
    R2        1.91845  -0.00012  -0.00137  -0.00010  -0.00147   1.91698
    R3        1.92260  -0.00014  -0.00260   0.00054  -0.00206   1.92054
    R4        2.65122   0.00013  -0.00159   0.00075  -0.00086   2.65036
    R5        2.68295  -0.00006  -0.00677   0.00270  -0.00407   2.67888
    R6        2.64429  -0.00031   0.00124  -0.00227  -0.00105   2.64324
    R7        2.05644  -0.00004   0.00051  -0.00049   0.00002   2.05646
    R8        2.64020   0.00011  -0.00102   0.00070  -0.00031   2.63989
    R9        2.05704   0.00006   0.00119  -0.00034   0.00084   2.05788
   R10        2.64269  -0.00035   0.00042  -0.00176  -0.00132   2.64137
   R11        2.05712   0.00003   0.00087  -0.00033   0.00054   2.05767
   R12        2.63928   0.00038   0.00576  -0.00273   0.00304   2.64233
   R13        2.05808  -0.00017   0.00072  -0.00115  -0.00043   2.05765
   R14        2.60935  -0.00013  -0.00798   0.00285  -0.00513   2.60422
   R15        1.86785   0.00095   0.00421   0.00083   0.00504   1.87289
    A1        1.97469  -0.00006   0.00367  -0.00445  -0.00078   1.97390
    A2        1.96618  -0.00022   0.00214  -0.00498  -0.00285   1.96333
    A3        1.89782   0.00013  -0.00231   0.00200  -0.00032   1.89751
    A4        2.12872   0.00062   0.00971  -0.00054   0.00906   2.13778
    A5        2.08986  -0.00073  -0.00795  -0.00212  -0.01021   2.07965
    A6        2.06195   0.00011   0.00150   0.00039   0.00166   2.06360
    A7        2.09886  -0.00008  -0.00098  -0.00033  -0.00139   2.09747
    A8        2.09527   0.00005  -0.00320   0.00194  -0.00122   2.09404
    A9        2.08906   0.00003   0.00419  -0.00161   0.00261   2.09167
   A10        2.10610   0.00005   0.00174  -0.00068   0.00099   2.10709
   A11        2.08483  -0.00007  -0.00189   0.00037  -0.00150   2.08333
   A12        2.09223   0.00002   0.00011   0.00040   0.00053   2.09276
   A13        2.09868   0.00012  -0.00026   0.00098   0.00069   2.09937
   A14        2.09705  -0.00004   0.00152  -0.00092   0.00061   2.09766
   A15        2.08743  -0.00008  -0.00116  -0.00014  -0.00130   2.08613
   A16        2.07617  -0.00005  -0.00308   0.00096  -0.00214   2.07403
   A17        2.12134   0.00017   0.00557  -0.00062   0.00495   2.12629
   A18        2.08564  -0.00012  -0.00243  -0.00038  -0.00280   2.08284
   A19        2.12302  -0.00014   0.00291  -0.00163   0.00113   2.12415
   A20        2.13822  -0.00000   0.00065   0.00006   0.00061   2.13884
   A21        2.02137   0.00014  -0.00434   0.00232  -0.00211   2.01926
   A22        1.94268   0.00023  -0.00512   0.00232  -0.00280   1.93989
    D1       -0.23129   0.00056   0.10040   0.00604   0.10644  -0.12485
    D2        2.99004   0.00065   0.05824   0.04019   0.09843   3.08848
    D3       -2.39275   0.00061   0.09891   0.01083   0.10973  -2.28302
    D4        0.82858   0.00070   0.05675   0.04497   0.10173   0.93031
    D5       -3.10377   0.00018  -0.00347   0.01779   0.01413  -3.08963
    D6        0.03830   0.00017  -0.00743   0.01870   0.01113   0.04943
    D7       -0.04069   0.00006   0.03749  -0.01594   0.02154  -0.01915
    D8        3.10138   0.00005   0.03352  -0.01504   0.01854   3.11992
    D9        3.12755  -0.00019   0.00885  -0.02606  -0.01736   3.11019
   D10       -0.05195  -0.00014  -0.02708  -0.00088  -0.02813  -0.08008
   D11        0.06267  -0.00013  -0.03222   0.00683  -0.02540   0.03727
   D12       -3.11684  -0.00008  -0.06816   0.03200  -0.03616   3.13018
   D13       -0.00359   0.00001  -0.02170   0.01391  -0.00781  -0.01140
   D14       -3.13797  -0.00006  -0.01036   0.00020  -0.01014   3.13508
   D15        3.13752   0.00002  -0.01776   0.01301  -0.00481   3.13271
   D16        0.00315  -0.00005  -0.00642  -0.00070  -0.00714  -0.00399
   D17        0.02838  -0.00003  -0.00107  -0.00218  -0.00320   0.02518
   D18       -3.12076  -0.00009   0.01011  -0.01403  -0.00389  -3.12465
   D19       -3.12046   0.00004  -0.01246   0.01159  -0.00087  -3.12133
   D20        0.01358  -0.00002  -0.00128  -0.00027  -0.00155   0.01203
   D21       -0.00712  -0.00003   0.00657  -0.00689  -0.00031  -0.00743
   D22        3.12547  -0.00005   0.01209  -0.01085   0.00122   3.12669
   D23       -3.14120   0.00003  -0.00457   0.00490   0.00037  -3.14084
   D24       -0.00861   0.00001   0.00096   0.00094   0.00189  -0.00672
   D25       -0.03897   0.00012   0.01040   0.00455   0.01489  -0.02408
   D26        3.13814   0.00007   0.04402  -0.01900   0.02491  -3.12014
   D27        3.11144   0.00013   0.00492   0.00843   0.01336   3.12480
   D28        0.00536   0.00009   0.03855  -0.01512   0.02338   0.02874
   D29        0.50154   0.00032   0.04943  -0.00435   0.04504   0.54658
   D30       -2.67591   0.00036   0.01551   0.01938   0.03494  -2.64097
         Item               Value     Threshold  Converged?
 Maximum Force            0.000947     0.000450     NO 
 RMS     Force            0.000262     0.000300     YES
 Maximum Displacement     0.181871     0.001800     NO 
 RMS     Displacement     0.032029     0.001200     NO 
 Predicted change in Energy=-1.716169D-04
 GradGradGradGradGradGradGradGradGradGradGradGradGradGradGradGradGradGrad

                          Input orientation:                          
 ---------------------------------------------------------------------
 Center     Atomic      Atomic             Coordinates (Angstroms)
 Number     Number       Type             X           Y           Z
 ---------------------------------------------------------------------
      1          7           0       -2.240164   -0.123483    0.086355
      2          6           0       -0.809653   -0.175285    0.023174
      3          6           0       -0.094798   -1.378655    0.112132
      4          6           0        1.303893   -1.367571    0.107236
      5          6           0        2.007803   -0.165634    0.000540
      6          6           0        1.320837    1.049436   -0.072891
      7          6           0       -0.077114    1.036372   -0.046631
      8          8           0       -0.688192    2.267303   -0.149273
      9          1           0       -2.672089   -1.041356    0.084055
     10          1           0       -2.642814    0.428350   -0.666129
     11          1           0       -0.628611   -2.323958    0.187579
     12          1           0        1.845667   -2.309174    0.183095
     13          1           0        3.096507   -0.168549   -0.018269
     14          1           0        1.844239    2.001689   -0.142748
     15          1           0       -1.565512    2.270516    0.311774
 ---------------------------------------------------------------------
                    Distance matrix (angstroms):
                    1          2          3          4          5
     1  N    0.000000
     2  C    1.432842   0.000000
     3  C    2.485703   1.402509   0.000000
     4  C    3.756133   2.428104   1.398744   0.000000
     5  C    4.249043   2.817564   2.429980   1.396970   0.000000
     6  C    3.752576   2.459301   2.816715   2.423769   1.397752
     7  C    2.457994   1.417604   2.420305   2.776653   2.407057
     8  O    2.860069   2.451679   3.703169   4.152892   3.634559
     9  H    1.014424   2.054861   2.599421   3.989410   4.761854
    10  H    1.016307   2.049388   3.219215   4.404535   4.735557
    11  H    2.729367   2.162545   1.088230   2.157708   3.412334
    12  H    4.634719   3.410246   2.153208   1.088985   2.157400
    13  H    5.337886   3.906385   3.415521   2.160293   1.088870
    14  H    4.609902   3.436553   3.905325   3.421459   2.178205
    15  H    2.497438   2.576152   3.939455   4.637995   4.335929
                    6          7          8          9         10
     6  C    0.000000
     7  C    1.398259   0.000000
     8  O    2.350581   1.378094   0.000000
     9  H    4.509934   3.326850   3.864908   0.000000
    10  H    4.055639   2.708557   2.733026   1.650355   0.000000
    11  H    3.904866   3.413330   4.603987   2.414869   3.515826
    12  H    3.408993   3.865558   5.241664   4.693324   5.325568
    13  H    2.153944   3.394776   4.502719   5.835149   5.806532
    14  H    1.088860   2.152365   2.546331   5.450577   4.783615
    15  H    3.157533   1.966442   0.991093   3.499266   2.347434
                   11         12         13         14         15
    11  H    0.000000
    12  H    2.474326   0.000000
    13  H    4.308673   2.487453   0.000000
    14  H    4.993529   4.323160   2.508705   0.000000
    15  H    4.690672   5.711940   5.271848   3.450400   0.000000
 Stoichiometry    C6H7NO
[...]
   D10        0.00020  -0.00000  -0.00026  -0.00001  -0.00027  -0.00007
   D11        0.00017  -0.00000  -0.00009  -0.00001  -0.00010   0.00007
   D12       -3.14159   0.00000   0.00007  -0.00004   0.00003  -3.14156
   D13       -0.00032   0.00001   0.00021   0.00009   0.00030  -0.00002
   D14        3.14119   0.00001   0.00028   0.00010   0.00038   3.14156
   D15        3.14130   0.00000   0.00017   0.00006   0.00023   3.14153
   D16       -0.00037   0.00000   0.00024   0.00007   0.00031  -0.00007
   D17        0.00032  -0.00000  -0.00020  -0.00005  -0.00025   0.00006
   D18       -3.14115  -0.00001  -0.00028  -0.00008  -0.00036  -3.14151
   D19       -3.14119  -0.00000  -0.00027  -0.00006  -0.00033  -3.14152
   D20        0.00053  -0.00001  -0.00035  -0.00009  -0.00044   0.00009
   D21       -0.00007  -0.00000   0.00004  -0.00001   0.00003  -0.00004
   D22        3.14149   0.00000  -0.00010   0.00014   0.00004   3.14153
   D23        3.14140   0.00000   0.00013   0.00001   0.00014   3.14154
   D24       -0.00023   0.00000  -0.00001   0.00017   0.00015  -0.00008
   D25       -0.00018   0.00000   0.00010   0.00004   0.00014  -0.00003
   D26        3.14157  -0.00000  -0.00005   0.00008   0.00003  -3.14159
   D27        3.14145   0.00000   0.00024  -0.00011   0.00013   3.14159
   D28        0.00001  -0.00000   0.00009  -0.00007   0.00002   0.00003
   D29        0.00049  -0.00001  -0.00011   0.00003  -0.00008   0.00041
   D30       -3.14125  -0.00000   0.00004  -0.00000   0.00004  -3.14122
         Item               Value     Threshold  Converged?
 Maximum Force            0.000035     0.000450     YES
 RMS     Force            0.000011     0.000300     YES
 Maximum Displacement     0.001018     0.001800     YES
 RMS     Displacement     0.000241     0.001200     YES
 Predicted change in Energy=-2.209619D-08
 Optimization completed.
    -- Stationary point found.
                           ----------------------------
                           !   Optimized Parameters   !
                           ! (Angstroms and Degrees)  !
 --------------------------                            --------------------------
 ! Name  Definition              Value          Derivative Info.                !
 --------------------------------------------------------------------------------
 ! R1    R(1,2)                  1.4515         -DE/DX =    0.0                 !
 ! R2    R(1,9)                  1.0192         -DE/DX =    0.0                 !
 ! R3    R(1,10)                 1.0193         -DE/DX =    0.0                 !
 ! R4    R(2,3)                  1.4012         -DE/DX =    0.0                 !
 ! R5    R(2,7)                  1.4155         -DE/DX =    0.0                 !
 ! R6    R(3,4)                  1.3962         -DE/DX =    0.0                 !
 ! R7    R(3,11)                 1.0887         -DE/DX =    0.0                 !
 ! R8    R(4,5)                  1.4023         -DE/DX =    0.0                 !
 ! R9    R(4,12)                 1.0875         -DE/DX =    0.0                 !
 ! R10   R(5,6)                  1.3927         -DE/DX =    0.0                 !
 ! R11   R(5,13)                 1.0902         -DE/DX =    0.0                 !
 ! R12   R(6,7)                  1.4053         -DE/DX =    0.0                 !
 ! R13   R(6,14)                 1.0879         -DE/DX =    0.0                 !
 ! R14   R(7,8)                  1.366          -DE/DX =    0.0                 !
 ! R15   R(8,15)                 1.0066         -DE/DX =    0.0                 !
 ! A1    A(2,1,9)              110.6107         -DE/DX =    0.0                 !
 ! A2    A(2,1,10)             110.6029         -DE/DX =    0.0                 !
 ! A3    A(9,1,10)             107.3587         -DE/DX =    0.0                 !
 ! A4    A(1,2,3)              124.8274         -DE/DX =    0.0                 !
 ! A5    A(1,2,7)              116.3478         -DE/DX =    0.0                 !
 ! A6    A(3,2,7)              118.8248         -DE/DX =    0.0                 !
 ! A7    A(2,3,4)              120.1219         -DE/DX =    0.0                 !
 ! A8    A(2,3,11)             119.9725         -DE/DX =    0.0                 !
 ! A9    A(4,3,11)             119.9056         -DE/DX =    0.0                 !
 ! A10   A(3,4,5)              120.364          -DE/DX =    0.0                 !
 ! A11   A(3,4,12)             119.8574         -DE/DX =    0.0                 !
 ! A12   A(5,4,12)             119.7786         -DE/DX =    0.0                 !
 ! A13   A(4,5,6)              120.7519         -DE/DX =    0.0                 !
 ! A14   A(4,5,13)             119.6848         -DE/DX =    0.0                 !
 ! A15   A(6,5,13)             119.5633         -DE/DX =    0.0                 !
 ! A16   A(5,6,7)              118.6877         -DE/DX =    0.0                 !
 ! A17   A(5,6,14)             121.9326         -DE/DX =    0.0                 !
 ! A18   A(7,6,14)             119.3797         -DE/DX =    0.0                 !
 ! A19   A(2,7,6)              121.2497         -DE/DX =    0.0                 !
 ! A20   A(2,7,8)              122.5291         -DE/DX =    0.0                 !
 ! A21   A(6,7,8)              116.2211         -DE/DX =    0.0                 !
 ! A22   A(7,8,15)             110.7943         -DE/DX =    0.0                 !
 ! D1    D(9,1,2,3)             59.3854         -DE/DX =    0.0                 !
 ! D2    D(9,1,2,7)           -120.6264         -DE/DX =    0.0                 !
 ! D3    D(10,1,2,3)           -59.4254         -DE/DX =    0.0                 !
 ! D4    D(10,1,2,7)           120.5627         -DE/DX =    0.0                 !
 ! D5    D(1,2,3,4)           -180.0075         -DE/DX =    0.0                 !
 ! D6    D(1,2,3,11)            -0.0093         -DE/DX =    0.0                 !
 ! D7    D(7,2,3,4)              0.0046         -DE/DX =    0.0                 !
 ! D8    D(7,2,3,11)           180.0028         -DE/DX =    0.0                 !
 ! D9    D(1,2,7,6)            180.0208         -DE/DX =    0.0                 !
 ! D10   D(1,2,7,8)              0.0115         -DE/DX =    0.0                 !
 ! D11   D(3,2,7,6)              0.0097         -DE/DX =    0.0                 !
 ! D12   D(3,2,7,8)           -179.9996         -DE/DX =    0.0                 !
 ! D13   D(2,3,4,5)             -0.0184         -DE/DX =    0.0                 !
 ! D14   D(2,3,4,12)           179.9767         -DE/DX =    0.0                 !
 ! D15   D(11,3,4,5)           179.9834         -DE/DX =    0.0                 !
 ! D16   D(11,3,4,12)           -0.0215         -DE/DX =    0.0                 !
 ! D17   D(3,4,5,6)              0.018          -DE/DX =    0.0                 !
 ! D18   D(3,4,5,13)          -179.9747         -DE/DX =    0.0                 !
 ! D19   D(12,4,5,6)          -179.977          -DE/DX =    0.0                 !
 ! D20   D(12,4,5,13)            0.0302         -DE/DX =    0.0                 !
 ! D21   D(4,5,6,7)             -0.0038         -DE/DX =    0.0                 !
 ! D22   D(4,5,6,14)           179.9942         -DE/DX =    0.0                 !
 ! D23   D(13,5,6,7)           179.989          -DE/DX =    0.0                 !
 ! D24   D(13,5,6,14)           -0.0131         -DE/DX =    0.0                 !
 ! D25   D(5,6,7,2)             -0.0101         -DE/DX =    0.0                 !
 ! D26   D(5,6,7,8)           -180.0013         -DE/DX =    0.0                 !
 ! D27   D(14,6,7,2)           179.9919         -DE/DX =    0.0                 !
 ! D28   D(14,6,7,8)             0.0007         -DE/DX =    0.0                 !
 ! D29   D(2,7,8,15)             0.0283         -DE/DX =    0.0                 !
 ! D30   D(6,7,8,15)          -179.9806         -DE/DX =    0.0                 !
 --------------------------------------------------------------------------------
 GradGradGradGradGradGradGradGradGradGradGradGradGradGradGradGradGradGrad

                          Input orientation:                          
 ---------------------------------------------------------------------
 Center     Atomic      Atomic             Coordinates (Angstroms)
 Number     Number       Type             X           Y           Z
 ---------------------------------------------------------------------
      1          7           0       -2.242939    0.011099   -0.041244
      2          6           0       -0.798282   -0.127181   -0.016989
      3          6           0       -0.110999   -1.348155   -0.027350
      4          6           0        1.284868   -1.366725   -0.001892
      5          6           0        2.009194   -0.166557    0.033788
      6          6           0        1.352427    1.061518    0.044834
      7          6           0       -0.052618    1.075389    0.019419
      8          8           0       -0.644386    2.306546    0.031738
      9          1           0       -2.661415   -0.453799    0.763444
     10          1           0       -2.630722   -0.422177   -0.878407
     11          1           0       -0.665866   -2.284397   -0.055268
     12          1           0        1.813906   -2.316823   -0.009678
     13          1           0        3.098928   -0.193969    0.053004
     14          1           0        1.895039    2.003977    0.072469
     15          1           0       -1.647136    2.221257    0.012130
 ---------------------------------------------------------------------
                    Distance matrix (angstroms):
                    1          2          3          4          5
     1  N    0.000000
     2  C    1.451462   0.000000
     3  C    2.528425   1.401158   0.000000
     4  C    3.787528   2.424090   1.396222   0.000000
     5  C    4.256504   2.808211   2.427989   1.402257   0.000000
     6  C    3.746658   2.458125   2.820169   2.429633   1.392708
     7  C    2.435959   1.415455   2.424698   2.784465   2.407012
     8  O    2.798173   2.439075   3.693892   4.149226   3.627359
     9  H    1.019203   2.046221   2.815999   4.122175   4.735979
    10  H    1.019287   2.046192   2.816157   4.122171   4.735638
    11  H    2.785078   2.161615   1.088672   2.156463   3.413081
    12  H    4.677415   3.408535   2.154968   1.087487   2.159553
    13  H    5.346632   3.898411   3.412072   2.160830   1.090248
    14  H    4.594274   3.435669   3.907805   3.426291   2.173878
    15  H    2.289678   2.497312   3.886127   4.633623   4.367022
                    6          7          8          9         10
     6  C    0.000000
     7  C    1.405344   0.000000
     8  O    2.353196   1.366049   0.000000
     9  H    4.350117   3.114131   3.496185   0.000000
    10  H    4.349621   3.113746   3.495687   1.642443   0.000000
    11  H    3.908795   3.416111   4.591818   2.829063   2.829502
    12  H    3.410150   3.871932   5.236455   4.908877   4.909083
    13  H    2.150949   3.397741   4.501715   5.809801   5.809346
    14  H    1.087851   2.158347   2.557712   5.222968   5.222347
    15  H    3.216123   1.963557   1.006562   2.957898   2.957743
                   11         12         13         14         15
    11  H    0.000000
    12  H    2.480403   0.000000
    13  H    4.307585   2.482281   0.000000
    14  H    4.996469   4.322342   2.506131   0.000000
    15  H    4.611763   5.707316   5.325422   3.549347   0.000000
 Stoichiometry    C6H7NO
 Framework group  C1[X(C6H7NO)]
 Deg. of freedom    39
 Full point group                 C1      NOp   1
 Largest Abelian subgroup         C1      NOp   1
 Largest concise Abelian subgroup C1      NOp   1
                         Standard orientation:                         
 ---------------------------------------------------------------------
 Center     Atomic      Atomic             Coordinates (Angstroms)
 Number     Number       Type             X           Y           Z
 ---------------------------------------------------------------------
      1          7           0       -1.943813    1.151952    0.000153
      2          6           0       -0.582295    0.648949   -0.000084
      3          6           0        0.566920    1.450539   -0.000061
      4          6           0        1.832513    0.860870   -0.000145
      5          6           0        1.964042   -0.535205    0.000136
      6          6           0        0.839236   -1.356451    0.000126
      7          6           0       -0.432585   -0.758567   -0.000092
      8          8           0       -1.500171   -1.610828   -0.000121
      9          1           0       -2.112085    1.732147   -0.820721
     10          1           0       -2.111991    1.731339    0.821721
     11          1           0        0.473480    2.535194   -0.000008
     12          1           0        2.721577    1.487122   -0.000510
     13          1           0        2.957676   -0.983905    0.000486
     14          1           0        0.918935   -2.441379    0.000247
     15          1           0       -2.366516   -1.098370   -0.000599
 ---------------------------------------------------------------------
 Rotational constants (GHZ):           3.2470129           2.2189544           1.3275655

 **********************************************************************

            Population analysis using the SCF density.

 **********************************************************************

 Orbital symmetries:
       Occupied  (A) (A) (A) (A) (A) (A) (A) (A) (A) (A) (A) (A)
                 (A) (A) (A) (A) (A) (A) (A) (A) (A)
       Virtual   (A) (A) (A) (A) (A) (A) (A) (A) (A) (A) (A) (A)
                 (A) (A) (A) (A) (A) (A)
 The electronic state is 1-A.
 Alpha  occ. eigenvalues --   -1.16637  -1.11645  -1.08967  -0.95239  -0.92771
 Alpha  occ. eigenvalues --   -0.80135  -0.78415  -0.67752  -0.63698  -0.63082
 Alpha  occ. eigenvalues --   -0.59334  -0.56247  -0.54166  -0.52206  -0.50533
 Alpha  occ. eigenvalues --   -0.47771  -0.44988  -0.44551  -0.37923  -0.36368
 Alpha  occ. eigenvalues --   -0.32830
 Alpha virt. eigenvalues --    0.00092   0.01138   0.08929   0.08982   0.11160
 Alpha virt. eigenvalues --    0.14451   0.15693   0.17012   0.17299   0.18144
 Alpha virt. eigenvalues --    0.19807   0.20051   0.21001   0.21148   0.22006
 Alpha virt. eigenvalues --    0.22506   0.23049   0.23492
          Condensed to atoms (all electrons):
               1          2          3          4          5          6
     1  N    5.505500   0.000000   0.000000   0.000000   0.000000   0.000000
     2  C    0.000000   4.095044   0.000000   0.000000   0.000000   0.000000
     3  C    0.000000   0.000000   4.118315   0.000000   0.000000   0.000000
     4  C    0.000000   0.000000   0.000000   4.224914   0.000000   0.000000
     5  C    0.000000   0.000000   0.000000   0.000000   4.049455   0.000000
     6  C    0.000000   0.000000   0.000000   0.000000   0.000000   4.287572
     7  C    0.000000   0.000000   0.000000   0.000000   0.000000   0.000000
     8  O    0.000000   0.000000   0.000000   0.000000   0.000000   0.000000
     9  H    0.000000   0.000000   0.000000   0.000000   0.000000   0.000000
    10  H    0.000000   0.000000   0.000000   0.000000   0.000000   0.000000
    11  H    0.000000   0.000000   0.000000   0.000000   0.000000   0.000000
    12  H    0.000000   0.000000   0.000000   0.000000   0.000000   0.000000
    13  H    0.000000   0.000000   0.000000   0.000000   0.000000   0.000000
    14  H    0.000000   0.000000   0.000000   0.000000   0.000000   0.000000
    15  H    0.000000   0.000000   0.000000   0.000000   0.000000   0.000000
               7          8          9         10         11         12
     1  N    0.000000   0.000000   0.000000   0.000000   0.000000   0.000000
     2  C    0.000000   0.000000   0.000000   0.000000   0.000000   0.000000
     3  C    0.000000   0.000000   0.000000   0.000000   0.000000   0.000000
     4  C    0.000000   0.000000   0.000000   0.000000   0.000000   0.000000
     5  C    0.000000   0.000000   0.000000   0.000000   0.000000   0.000000
     6  C    0.000000   0.000000   0.000000   0.000000   0.000000   0.000000
     7  C    3.673793   0.000000   0.000000   0.000000   0.000000   0.000000
     8  O    0.000000   6.462887   0.000000   0.000000   0.000000   0.000000
     9  H    0.000000   0.000000   0.777796   0.000000   0.000000   0.000000
    10  H    0.000000   0.000000   0.000000   0.777779   0.000000   0.000000
    11  H    0.000000   0.000000   0.000000   0.000000   0.855214   0.000000
    12  H    0.000000   0.000000   0.000000   0.000000   0.000000   0.845738
    13  H    0.000000   0.000000   0.000000   0.000000   0.000000   0.000000
    14  H    0.000000   0.000000   0.000000   0.000000   0.000000   0.000000
    15  H    0.000000   0.000000   0.000000   0.000000   0.000000   0.000000
              13         14         15
     1  N    0.000000   0.000000   0.000000
     2  C    0.000000   0.000000   0.000000
     3  C    0.000000   0.000000   0.000000
     4  C    0.000000   0.000000   0.000000
     5  C    0.000000   0.000000   0.000000
     6  C    0.000000   0.000000   0.000000
     7  C    0.000000   0.000000   0.000000
     8  O    0.000000   0.000000   0.000000
     9  H    0.000000   0.000000   0.000000
    10  H    0.000000   0.000000   0.000000
    11  H    0.000000   0.000000   0.000000
    12  H    0.000000   0.000000   0.000000
    13  H    0.856510   0.000000   0.000000
    14  H    0.000000   0.819240   0.000000
    15  H    0.000000   0.000000   0.650246
 Mulliken charges:
               1
     1  N   -0.505500
     2  C   -0.095044
     3  C   -0.118315
     4  C   -0.224914
     5  C   -0.049455
     6  C   -0.287572
     7  C    0.326207
     8  O   -0.462887
     9  H    0.222204
    10  H    0.222221
    11  H    0.144786
    12  H    0.154262
    13  H    0.143490
    14  H    0.180760
    15  H    0.349754
 Sum of Mulliken charges =   0.00000
 Mulliken charges with hydrogens summed into heavy atoms:
               1
     1  N   -0.061074
     2  C   -0.095044
     3  C    0.026472
     4  C   -0.070652
     5  C    0.094035
     6  C   -0.106812
     7  C    0.326207
     8  O   -0.113132
 Charge=              0.0000 electrons
 Dipole moment (field-independent basis, Debye):
    X=              0.1802    Y=              2.5483    Z=              0.0003  Tot=              2.5547
 N-N= 2.079095588720D+02 E-N=-3.105399721984D+02  KE=-7.743872385307D+01
 1\1\GINC-MACMINIM12022MAC-MINI-2\FOpt\RPM6\ZDO\C6H7N1O1\MACMINI_M1_202
 2\27-May-2024\0\\# opt pm6\\Smiles:Nc1ccccc1O\\0,1\N,-2.2429387377,0.0
 110992036,-0.0412435374\C,-0.7982819396,-0.1271814488,-0.0169890392\C,
 -0.1109986831,-1.348155253,-0.0273498208\C,1.2848679758,-1.3667253619,
 -0.0018919658\C,2.0091943305,-0.1665573254,0.0337878697\C,1.3524274276
 ,1.0615182153,0.0448335257\C,-0.0526184147,1.0753885278,0.0194188674\O
 ,-0.6443863511,2.3065462678,0.0317383539\H,-2.6614150752,-0.4537994358
 ,0.7634442979\H,-2.6307222482,-0.4221771274,-0.8784069259\H,-0.6658656
 631,-2.2843973284,-0.0552682675\H,1.8139061608,-2.3168227462,-0.009677
 7516\H,3.0989282026,-0.1939693088,0.0530040057\H,1.8950394845,2.003976
 9994,0.0724685647\H,-1.6471364691,2.2212571219,0.0121298232\\Version=E
 M64M-G16RevA.03\State=1-A\HF=-0.0323831\RMSD=8.345e-09\RMSF=1.856e-05\
 Dipole=-0.3712267,-0.9336935,-0.0245648\PG=C01 [X(C6H7N1O1)]\\@


 THE UNDERLYING PHYSICAL LAWS NECESSARY FOR THE 
 MATHEMATICAL THEORY OF A LARGE PART OF PHYSICS AND THE
 WHOLE OF CHEMISTRY ARE THUS COMPLETELY KNOWN, AND THE
 DIFFICULTY IS ONLY THAT THE EXACT APPLICATION OF THESE
 LAWS LEADS TO EQUATIONS MUCH TOO COMPLICATED 
 TO BE SOLUBLE.

                                        -- P. A. M. DIRAC, 1929
 Job cpu time:       0 days  0 hours  0 minutes  6.2 seconds.
 Elapsed time:       0 days  0 hours  0 minutes  5.3 seconds.
 File lengths (MBytes):  RWF=      6 Int=      0 D2E=      0 Chk=      2 Scr=      1
 Normal termination of Gaussian 16 at Mon May 27 12:00:04 2024.
