 Entering Gaussian System, Link 0=g16
 Input=/Users/macmini_m1_2022/Poclab/ichizawa/Gaussian/20240527_1_500/2_#_opt_freq_b3lyp_6-31G_d_geom_allcheck_guess_read.gjf
 Output=/Users/macmini_m1_2022/Poclab/ichizawa/Gaussian/20240527_1_500/2_#_opt_freq_b3lyp_6-31G_d_geom_allcheck_guess_read.log
 Initial command:
 /Applications/g16/l1.exe "/Users/macmini_m1_2022/Poclab/ichizawa/Gaussian/20240527_1_500/Gau-63091.inp" -scrdir="/Users/macmini_m1_2022/Poclab/ichizawa/Gaussian/20240527_1_500/"
 Entering Link 1 = /Applications/g16/l1.exe PID=     63092.
  
 Copyright (c) 1988,1990,1992,1993,1995,1998,2003,2009,2016,
            Gaussian, Inc.  All Rights Reserved.
  
 This is part of the Gaussian(R) 16 program.  It is based on
 the Gaussian(R) 09 system (copyright 2009, Gaussian, Inc.),
 the Gaussian(R) 03 system (copyright 2003, Gaussian, Inc.),
 the Gaussian(R) 98 system (copyright 1998, Gaussian, Inc.),
 the Gaussian(R) 94 system (copyright 1995, Gaussian, Inc.),
 the Gaussian 92(TM) system (copyright 1992, Gaussian, Inc.),
 the Gaussian 90(TM) system (copyright 1990, Gaussian, Inc.),
 the Gaussian 88(TM) system (copyright 1988, Gaussian, Inc.),
 the Gaussian 86(TM) system (copyright 1986, Carnegie Mellon
 University), and the Gaussian 82(TM) system (copyright 1983,
 Carnegie Mellon University). Gaussian is a federally registered
 trademark of Gaussian, Inc.
  
 This software contains proprietary and confidential information,
 including trade secrets, belonging to Gaussian, Inc.
  
 This software is provided under written license and may be
 used, copied, transmitted, or stored only in accord with that
 written license.
  
 The following legend is applicable only to US Government
 contracts under FAR:
  
                    RESTRICTED RIGHTS LEGEND
  
 Use, reproduction and disclosure by the US Government is
 subject to restrictions as set forth in subparagraphs (a)
 and (c) of the Commercial Computer Software - Restricted
 Rights clause in FAR 52.227-19.
  
 Gaussian, Inc.
 340 Quinnipiac St., Bldg. 40, Wallingford CT 06492
  
  
 ---------------------------------------------------------------
 Warning -- This program may not be used in any manner that
 competes with the business of Gaussian, Inc. or will provide
 assistance to any competitor of Gaussian, Inc.  The licensee
 of this program is prohibited from giving any competitor of
 Gaussian, Inc. access to this program.  By using this program,
 the user acknowledges that Gaussian, Inc. is engaged in the
 business of creating and licensing software in the field of
 computational chemistry and represents and warrants to the
 licensee that it is not a competitor of Gaussian, Inc. and that
 it will not use this program in any manner prohibited above.
 ---------------------------------------------------------------
  

 Cite this work as:
 Gaussian 16, Revision A.03,
 M. J. Frisch, G. W. Trucks, H. B. Schlegel, G. E. Scuseria, 
 M. A. Robb, J. R. Cheeseman, G. Scalmani, V. Barone, 
 G. A. Petersson, H. Nakatsuji, X. Li, M. Caricato, A. V. Marenich, 
 J. Bloino, B. G. Janesko, R. Gomperts, B. Mennucci, H. P. Hratchian, 
 J. V. Ortiz, A. F. Izmaylov, J. L. Sonnenberg, D. Williams-Young, 
 F. Ding, F. Lipparini, F. Egidi, J. Goings, B. Peng, A. Petrone, 
 T. Henderson, D. Ranasinghe, V. G. Zakrzewski, J. Gao, N. Rega, 
 G. Zheng, W. Liang, M. Hada, M. Ehara, K. Toyota, R. Fukuda, 
 J. Hasegawa, M. Ishida, T. Nakajima, Y. Honda, O. Kitao, H. Nakai, 
 T. Vreven, K. Throssell, J. A. Montgomery, Jr., J. E. Peralta, 
 F. Ogliaro, M. J. Bearpark, J. J. Heyd, E. N. Brothers, K. N. Kudin, 
 V. N. Staroverov, T. A. Keith, R. Kobayashi, J. Normand, 
 K. Raghavachari, A. P. Rendell, J. C. Burant, S. S. Iyengar, 
 J. Tomasi, M. Cossi, J. M. Millam, M. Klene, C. Adamo, R. Cammi, 
 J. W. Ochterski, R. L. Martin, K. Morokuma, O. Farkas, 
 J. B. Foresman, and D. J. Fox, Gaussian, Inc., Wallingford CT, 2016.
 
 ******************************************
 Gaussian 16:  EM64M-G16RevA.03 25-Dec-2016
                27-May-2024 
 ******************************************
 %Mem=16GB
 %Nprocshared=10
 Will use up to   10 processors via shared memory.
 %oldchk=2_#_opt_pm6_MMFF.chk
 %chk=2_#_opt_freq_b3lyp_6-31G_d_geom_allcheck_guess_read.chk
 Copying data from "2_#_opt_pm6_MMFF.chk" to current chk file "2_#_opt_freq_b3lyp_6-31G_d_geom_allcheck_guess_read.chk"
 IOpt=  2 FromEx=T IUOpen= 4 IOptOp= 5 NList=   0 IFRang= 0 IUIn= 4 IUOut= 2.
 --------------------------------------------------
 # opt freq b3lyp/6-31G(d) geom=allcheck guess=read
 --------------------------------------------------
 1/18=20,19=15,26=3,29=7,38=1/1,3;
 2/9=110,12=2,40=1/2;
 3/5=1,6=6,7=1,11=2,14=-4,25=1,30=1,71=1,74=-5,116=-2/1,2,3;
 4/5=1/1;
 5/5=2,38=6/2;
 6/7=2,8=2,9=2,10=2,28=1/1;
 7//1,2,3,16;
 1/18=20,19=15,26=3/3(2);
 2/9=110/2;
 99//99;
 2/9=110/2;
 3/5=1,6=6,7=1,11=2,14=-2,25=1,30=1,71=1,74=-5/1,2,3;
 4/5=5,16=3,69=1/1;
 5/5=2,38=5/2;
 7//1,2,3,16;
 1/18=20,19=15,26=3/3(-5);
 2/9=110/2;
 6/7=2,8=2,9=2,10=2,19=2,28=1/1;
 99/9=1/99;
 Structure from the checkpoint file:  "2_#_opt_freq_b3lyp_6-31G_d_geom_allcheck_guess_read.chk"
 -----------------
 Smiles:Nc1ccccc1O
 -----------------
 Charge =  0 Multiplicity = 1
 Redundant internal coordinates found in file.  (old form).
 N,0,-2.2429387377,0.0110992036,-0.0412435374
 C,0,-0.7982819396,-0.1271814488,-0.0169890392
 C,0,-0.1109986831,-1.348155253,-0.0273498208
 C,0,1.2848679758,-1.3667253619,-0.0018919658
 C,0,2.0091943305,-0.1665573254,0.0337878697
 C,0,1.3524274276,1.0615182153,0.0448335257
 C,0,-0.0526184147,1.0753885278,0.0194188674
 O,0,-0.6443863511,2.3065462678,0.0317383539
 H,0,-2.6614150752,-0.4537994358,0.7634442979
 H,0,-2.6307222482,-0.4221771274,-0.8784069259
 H,0,-0.6658656631,-2.2843973284,-0.0552682675
 H,0,1.8139061608,-2.3168227462,-0.0096777516
 H,0,3.0989282026,-0.1939693088,0.0530040057
 H,0,1.8950394845,2.0039769994,0.0724685647
 H,0,-1.6471364691,2.2212571219,0.0121298232
 Recover connectivity data from disk.

 GradGradGradGradGradGradGradGradGradGradGradGradGradGradGradGradGradGrad
 Berny optimization.
 Initialization pass.
                           ----------------------------
                           !    Initial Parameters    !
                           ! (Angstroms and Degrees)  !
 --------------------------                            --------------------------
 ! Name  Definition              Value          Derivative Info.                !
 --------------------------------------------------------------------------------
 ! R1    R(1,2)                  1.4515         estimate D2E/DX2                !
 ! R2    R(1,9)                  1.0192         estimate D2E/DX2                !
 ! R3    R(1,10)                 1.0193         estimate D2E/DX2                !
 ! R4    R(2,3)                  1.4012         estimate D2E/DX2                !
 ! R5    R(2,7)                  1.4155         estimate D2E/DX2                !
 ! R6    R(3,4)                  1.3962         estimate D2E/DX2                !
 ! R7    R(3,11)                 1.0887         estimate D2E/DX2                !
 ! R8    R(4,5)                  1.4023         estimate D2E/DX2                !
 ! R9    R(4,12)                 1.0875         estimate D2E/DX2                !
 ! R10   R(5,6)                  1.3927         estimate D2E/DX2                !
 ! R11   R(5,13)                 1.0902         estimate D2E/DX2                !
 ! R12   R(6,7)                  1.4053         estimate D2E/DX2                !
 ! R13   R(6,14)                 1.0879         estimate D2E/DX2                !
 ! R14   R(7,8)                  1.366          estimate D2E/DX2                !
 ! R15   R(8,15)                 1.0066         estimate D2E/DX2                !
 ! A1    A(2,1,9)              110.6107         estimate D2E/DX2                !
 ! A2    A(2,1,10)             110.6029         estimate D2E/DX2                !
 ! A3    A(9,1,10)             107.3587         estimate D2E/DX2                !
 ! A4    A(1,2,3)              124.8274         estimate D2E/DX2                !
 ! A5    A(1,2,7)              116.3478         estimate D2E/DX2                !
 ! A6    A(3,2,7)              118.8248         estimate D2E/DX2                !
 ! A7    A(2,3,4)              120.1219         estimate D2E/DX2                !
 ! A8    A(2,3,11)             119.9725         estimate D2E/DX2                !
 ! A9    A(4,3,11)             119.9056         estimate D2E/DX2                !
 ! A10   A(3,4,5)              120.364          estimate D2E/DX2                !
 ! A11   A(3,4,12)             119.8574         estimate D2E/DX2                !
 ! A12   A(5,4,12)             119.7786         estimate D2E/DX2                !
 ! A13   A(4,5,6)              120.7519         estimate D2E/DX2                !
 ! A14   A(4,5,13)             119.6848         estimate D2E/DX2                !
 ! A15   A(6,5,13)             119.5633         estimate D2E/DX2                !
 ! A16   A(5,6,7)              118.6877         estimate D2E/DX2                !
 ! A17   A(5,6,14)             121.9326         estimate D2E/DX2                !
 ! A18   A(7,6,14)             119.3797         estimate D2E/DX2                !
 ! A19   A(2,7,6)              121.2497         estimate D2E/DX2                !
 ! A20   A(2,7,8)              122.5291         estimate D2E/DX2                !
 ! A21   A(6,7,8)              116.2211         estimate D2E/DX2                !
 ! A22   A(7,8,15)             110.7943         estimate D2E/DX2                !
 ! D1    D(9,1,2,3)             59.3854         estimate D2E/DX2                !
 ! D2    D(9,1,2,7)           -120.6264         estimate D2E/DX2                !
 ! D3    D(10,1,2,3)           -59.4254         estimate D2E/DX2                !
 ! D4    D(10,1,2,7)           120.5627         estimate D2E/DX2                !
 ! D5    D(1,2,3,4)            179.9925         estimate D2E/DX2                !
 ! D6    D(1,2,3,11)            -0.0093         estimate D2E/DX2                !
 ! D7    D(7,2,3,4)              0.0046         estimate D2E/DX2                !
 ! D8    D(7,2,3,11)          -179.9972         estimate D2E/DX2                !
 ! D9    D(1,2,7,6)           -179.9792         estimate D2E/DX2                !
 ! D10   D(1,2,7,8)              0.0115         estimate D2E/DX2                !
 ! D11   D(3,2,7,6)              0.0097         estimate D2E/DX2                !
 ! D12   D(3,2,7,8)           -179.9996         estimate D2E/DX2                !
 ! D13   D(2,3,4,5)             -0.0184         estimate D2E/DX2                !
 ! D14   D(2,3,4,12)           179.9767         estimate D2E/DX2                !
 ! D15   D(11,3,4,5)           179.9834         estimate D2E/DX2                !
 ! D16   D(11,3,4,12)           -0.0215         estimate D2E/DX2                !
 ! D17   D(3,4,5,6)              0.018          estimate D2E/DX2                !
 ! D18   D(3,4,5,13)          -179.9747         estimate D2E/DX2                !
 ! D19   D(12,4,5,6)          -179.977          estimate D2E/DX2                !
 ! D20   D(12,4,5,13)            0.0302         estimate D2E/DX2                !
 ! D21   D(4,5,6,7)             -0.0038         estimate D2E/DX2                !
 ! D22   D(4,5,6,14)           179.9942         estimate D2E/DX2                !
 ! D23   D(13,5,6,7)           179.989          estimate D2E/DX2                !
 ! D24   D(13,5,6,14)           -0.0131         estimate D2E/DX2                !
 ! D25   D(5,6,7,2)             -0.0101         estimate D2E/DX2                !
 ! D26   D(5,6,7,8)            179.9987         estimate D2E/DX2                !
 ! D27   D(14,6,7,2)           179.9919         estimate D2E/DX2                !
 ! D28   D(14,6,7,8)             0.0007         estimate D2E/DX2                !
 ! D29   D(2,7,8,15)             0.0283         estimate D2E/DX2                !
 ! D30   D(6,7,8,15)          -179.9806         estimate D2E/DX2                !
 --------------------------------------------------------------------------------
 Trust Radius=3.00D-01 FncErr=1.00D-07 GrdErr=1.00D-06 EigMax=2.50D+02 EigMin=1.00D-04
 Number of steps in this run=     77 maximum allowed number of steps=    100.
 GradGradGradGradGradGradGradGradGradGradGradGradGradGradGradGradGradGrad

                          Input orientation:                          
 ---------------------------------------------------------------------
 Center     Atomic      Atomic             Coordinates (Angstroms)
 Number     Number       Type             X           Y           Z
 ---------------------------------------------------------------------
      1          7           0       -2.242939    0.011099   -0.041244
      2          6           0       -0.798282   -0.127181   -0.016989
      3          6           0       -0.110999   -1.348155   -0.027350
      4          6           0        1.284868   -1.366725   -0.001892
      5          6           0        2.009194   -0.166557    0.033788
      6          6           0        1.352427    1.061518    0.044834
      7          6           0       -0.052618    1.075389    0.019419
      8          8           0       -0.644386    2.306546    0.031738
      9          1           0       -2.661415   -0.453799    0.763444
     10          1           0       -2.630722   -0.422177   -0.878407
     11          1           0       -0.665866   -2.284397   -0.055268
     12          1           0        1.813906   -2.316823   -0.009678
     13          1           0        3.098928   -0.193969    0.053004
     14          1           0        1.895039    2.003977    0.072469
     15          1           0       -1.647136    2.221257    0.012130
 ---------------------------------------------------------------------
                    Distance matrix (angstroms):
                    1          2          3          4          5
     1  N    0.000000
     2  C    1.451462   0.000000
     3  C    2.528425   1.401158   0.000000
     4  C    3.787528   2.424090   1.396222   0.000000
     5  C    4.256504   2.808211   2.427989   1.402257   0.000000
     6  C    3.746658   2.458125   2.820169   2.429633   1.392708
     7  C    2.435959   1.415455   2.424698   2.784465   2.407012
     8  O    2.798173   2.439075   3.693892   4.149226   3.627359
     9  H    1.019203   2.046221   2.815999   4.122175   4.735979
    10  H    1.019287   2.046192   2.816157   4.122171   4.735638
    11  H    2.785078   2.161615   1.088672   2.156463   3.413081
    12  H    4.677415   3.408535   2.154968   1.087487   2.159553
    13  H    5.346632   3.898411   3.412072   2.160830   1.090248
    14  H    4.594274   3.435669   3.907805   3.426291   2.173878
    15  H    2.289678   2.497312   3.886127   4.633623   4.367022
                    6          7          8          9         10
     6  C    0.000000
     7  C    1.405344   0.000000
     8  O    2.353196   1.366049   0.000000
     9  H    4.350117   3.114131   3.496185   0.000000
    10  H    4.349621   3.113746   3.495687   1.642443   0.000000
    11  H    3.908795   3.416111   4.591818   2.829063   2.829502
    12  H    3.410150   3.871932   5.236455   4.908877   4.909083
    13  H    2.150949   3.397741   4.501715   5.809801   5.809346
    14  H    1.087851   2.158347   2.557712   5.222968   5.222347
    15  H    3.216123   1.963557   1.006562   2.957898   2.957743
                   11         12         13         14         15
    11  H    0.000000
    12  H    2.480403   0.000000
    13  H    4.307585   2.482281   0.000000
    14  H    4.996469   4.322342   2.506131   0.000000
    15  H    4.611763   5.707316   5.325422   3.549347   0.000000
 Stoichiometry    C6H7NO
 Framework group  C1[X(C6H7NO)]
 Deg. of freedom    39
 Full point group                 C1      NOp   1
 Largest Abelian subgroup         C1      NOp   1
 Largest concise Abelian subgroup C1      NOp   1
                         Standard orientation:                         
 ---------------------------------------------------------------------
 Center     Atomic      Atomic             Coordinates (Angstroms)
 Number     Number       Type             X           Y           Z
 ---------------------------------------------------------------------
      1          7           0       -1.943813    1.151952    0.000153
      2          6           0       -0.582295    0.648949   -0.000084
      3          6           0        0.566920    1.450539   -0.000061
      4          6           0        1.832513    0.860870   -0.000145
      5          6           0        1.964042   -0.535205    0.000136
      6          6           0        0.839236   -1.356451    0.000126
      7          6           0       -0.432585   -0.758567   -0.000092
      8          8           0       -1.500171   -1.610828   -0.000121
      9          1           0       -2.112085    1.732147   -0.820721
     10          1           0       -2.111991    1.731339    0.821721
     11          1           0        0.473480    2.535194   -0.000008
     12          1           0        2.721577    1.487122   -0.000510
     13          1           0        2.957676   -0.983905    0.000486
     14          1           0        0.918935   -2.441379    0.000247
     15          1           0       -2.366516   -1.098370   -0.000599
 ---------------------------------------------------------------------
 Rotational constants (GHZ):           3.2470129           2.2189544           1.3275655
 Standard basis: 6-31G(d) (6D, 7F)
 There are   134 symmetry adapted cartesian basis functions of A   symmetry.
 There are   134 symmetry adapted basis functions of A   symmetry.
   134 basis functions,   252 primitive gaussians,   134 cartesian basis functions
    29 alpha electrons       29 beta electrons
       nuclear repulsion energy       348.1384918317 Hartrees.
 NAtoms=   15 NActive=   15 NUniq=   15 SFac= 1.00D+00 NAtFMM=   60 NAOKFM=F Big=F
 Integral buffers will be    131072 words long.
 Raffenetti 2 integral format.
 Two-electron integral symmetry is turned on.
 One-electron integrals computed using PRISM.
 NBasis=   134 RedAO= T EigKep=  4.20D-04  NBF=   134
 NBsUse=   134 1.00D-06 EigRej= -1.00D+00 NBFU=   134
 Initial guess from the checkpoint file:  "2_#_opt_freq_b3lyp_6-31G_d_geom_allcheck_guess_read.chk"
 B after Tr=    -0.000000    0.000000    0.000000
         Rot=    1.000000    0.000000   -0.000000    0.000000 Ang=   0.00 deg.
 Requested convergence on RMS density matrix=1.00D-08 within 128 cycles.
 Requested convergence on MAX density matrix=1.00D-06.
 Requested convergence on             energy=1.00D-06.
 No special actions if energy rises.
 EnCoef did     6 forward-backward iterations
 EnCoef did     2 forward-backward iterations
 EnCoef did     3 forward-backward iterations
 SCF Done:  E(RB3LYP) =  -362.815276602     A.U. after   20 cycles
            NFock= 20  Conv=0.83D-08     -V/T= 2.0099

 **********************************************************************

            Population analysis using the SCF density.

 **********************************************************************

 Orbital symmetries:
       Occupied  (A) (A) (A) (A) (A) (A) (A) (A) (A) (A) (A) (A)
                 (A) (A) (A) (A) (A) (A) (A) (A) (A) (A) (A) (A)
                 (A) (A) (A) (A) (A)
       Virtual   (A) (A) (A) (A) (A) (A) (A) (A) (A) (A) (A) (A)
                 (A) (A) (A) (A) (A) (A) (A) (A) (A) (A) (A) (A)
                 (A) (A) (A) (A) (A) (A) (A) (A) (A) (A) (A) (A)
                 (A) (A) (A) (A) (A) (A) (A) (A) (A) (A) (A) (A)
                 (A) (A) (A) (A) (A) (A) (A) (A) (A) (A) (A) (A)
                 (A) (A) (A) (A) (A) (A) (A) (A) (A) (A) (A) (A)
                 (A) (A) (A) (A) (A) (A) (A) (A) (A) (A) (A) (A)
                 (A) (A) (A) (A) (A) (A) (A) (A) (A) (A) (A) (A)
                 (A) (A) (A) (A) (A) (A) (A) (A) (A)
 The electronic state is 1-A.
 Alpha  occ. eigenvalues --  -19.16225 -14.33784 -10.24117 -10.21502 -10.18861
 Alpha  occ. eigenvalues --  -10.18596 -10.17952 -10.17941  -1.03526  -0.89934
 Alpha  occ. eigenvalues --   -0.82864  -0.73417  -0.71557  -0.60883  -0.59388
 Alpha  occ. eigenvalues --   -0.52714  -0.49747  -0.49674  -0.45846  -0.43834
 Alpha  occ. eigenvalues --   -0.42372  -0.38853  -0.37512  -0.36598  -0.33284
 Alpha  occ. eigenvalues --   -0.32310  -0.26705  -0.24390  -0.20998
 Alpha virt. eigenvalues --    0.00076   0.02073   0.06894   0.10036   0.11948
 Alpha virt. eigenvalues --    0.13818   0.15024   0.17632   0.18889   0.18971
 Alpha virt. eigenvalues --    0.23375   0.26211   0.31745   0.33398   0.34760
 Alpha virt. eigenvalues --    0.36340   0.52082   0.52620   0.52828   0.55368
 Alpha virt. eigenvalues --    0.56380   0.59712   0.60191   0.60710   0.61374
 Alpha virt. eigenvalues --    0.62189   0.62894   0.64835   0.66551   0.68350
 Alpha virt. eigenvalues --    0.72806   0.74440   0.76881   0.81201   0.82367
 Alpha virt. eigenvalues --    0.84173   0.86152   0.86377   0.90068   0.90534
 Alpha virt. eigenvalues --    0.91599   0.92553   0.93827   0.99141   0.99570
 Alpha virt. eigenvalues --    1.03004   1.03428   1.11194   1.13182   1.14564
 Alpha virt. eigenvalues --    1.22093   1.25250   1.27814   1.34862   1.36351
 Alpha virt. eigenvalues --    1.41893   1.43010   1.45277   1.49052   1.50485
 Alpha virt. eigenvalues --    1.53520   1.67075   1.74368   1.77557   1.78731
 Alpha virt. eigenvalues --    1.81786   1.86650   1.87275   1.91320   1.93468
 Alpha virt. eigenvalues --    1.95571   1.97763   2.04469   2.09964   2.11910
 Alpha virt. eigenvalues --    2.15091   2.20414   2.24449   2.26273   2.27606
 Alpha virt. eigenvalues --    2.29800   2.31921   2.39901   2.44825   2.44846
 Alpha virt. eigenvalues --    2.54713   2.55131   2.62228   2.66803   2.69588
 Alpha virt. eigenvalues --    2.73838   2.75340   2.81774   2.84946   2.99390
 Alpha virt. eigenvalues --    3.14949   3.41250   3.83412   4.01372   4.09121
 Alpha virt. eigenvalues --    4.13096   4.20898   4.34881   4.43417   4.77447
          Condensed to atoms (all electrons):
               1          2          3          4          5          6
     1  N    7.007028   0.284529  -0.083101   0.006036   0.000281   0.004644
     2  C    0.284529   4.888781   0.505360  -0.018303  -0.034777  -0.065565
     3  C   -0.083101   0.505360   5.015586   0.502441  -0.032181  -0.038522
     4  C    0.006036  -0.018303   0.502441   4.905820   0.542806  -0.034393
     5  C    0.000281  -0.034777  -0.032181   0.542806   4.854653   0.538808
     6  C    0.004644  -0.065565  -0.038522  -0.034393   0.538808   4.965663
     7  C   -0.057163   0.463721  -0.024958  -0.037576  -0.018325   0.539642
     8  O   -0.016070  -0.064582   0.004614   0.000094   0.003232  -0.058255
     9  H    0.316667  -0.039590  -0.000625   0.000170   0.000015  -0.000158
    10  H    0.316667  -0.039599  -0.000620   0.000170   0.000015  -0.000158
    11  H   -0.003548  -0.043775   0.349116  -0.037865   0.004740   0.000568
    12  H   -0.000129   0.003278  -0.036435   0.354915  -0.042021   0.004403
    13  H    0.000004   0.000654   0.004805  -0.042323   0.357925  -0.041588
    14  H   -0.000114   0.006767   0.000123   0.004589  -0.043655   0.344959
    15  H    0.036307  -0.011696   0.000876  -0.000089  -0.000147   0.005865
               7          8          9         10         11         12
     1  N   -0.057163  -0.016070   0.316667   0.316667  -0.003548  -0.000129
     2  C    0.463721  -0.064582  -0.039590  -0.039599  -0.043775   0.003278
     3  C   -0.024958   0.004614  -0.000625  -0.000620   0.349116  -0.036435
     4  C   -0.037576   0.000094   0.000170   0.000170  -0.037865   0.354915
     5  C   -0.018325   0.003232   0.000015   0.000015   0.004740  -0.042021
     6  C    0.539642  -0.058255  -0.000158  -0.000158   0.000568   0.004403
     7  C    4.535741   0.302846   0.001546   0.001534   0.003687   0.000669
     8  O    0.302846   8.256303   0.000421   0.000422  -0.000047   0.000002
     9  H    0.001546   0.000421   0.432696  -0.032835   0.001750  -0.000002
    10  H    0.001534   0.000422  -0.032835   0.432716   0.001747  -0.000002
    11  H    0.003687  -0.000047   0.001750   0.001747   0.608777  -0.005870
    12  H    0.000669   0.000002  -0.000002  -0.000002  -0.005870   0.604547
    13  H    0.004269  -0.000063  -0.000000  -0.000000  -0.000192  -0.005562
    14  H   -0.032375  -0.000850   0.000004   0.000004   0.000016  -0.000166
    15  H   -0.031618   0.230797  -0.000952  -0.000952  -0.000016   0.000000
              13         14         15
     1  N    0.000004  -0.000114   0.036307
     2  C    0.000654   0.006767  -0.011696
     3  C    0.004805   0.000123   0.000876
     4  C   -0.042323   0.004589  -0.000089
     5  C    0.357925  -0.043655  -0.000147
     6  C   -0.041588   0.344959   0.005865
     7  C    0.004269  -0.032375  -0.031618
     8  O   -0.000063  -0.000850   0.230797
     9  H   -0.000000   0.000004  -0.000952
    10  H   -0.000000   0.000004  -0.000952
    11  H   -0.000192   0.000016  -0.000016
    12  H   -0.005562  -0.000166   0.000000
    13  H    0.600336  -0.005870   0.000004
    14  H   -0.005870   0.586925  -0.000337
    15  H    0.000004  -0.000337   0.356592
 Mulliken charges:
               1
     1  N   -0.812040
     2  C    0.164797
     3  C   -0.166482
     4  C   -0.146494
     5  C   -0.131369
     6  C   -0.165913
     7  C    0.348359
     8  O   -0.658865
     9  H    0.320890
    10  H    0.320889
    11  H    0.120911
    12  H    0.122373
    13  H    0.127602
    14  H    0.139979
    15  H    0.415364
 Sum of Mulliken charges =  -0.00000
 Mulliken charges with hydrogens summed into heavy atoms:
               1
     1  N   -0.170261
     2  C    0.164797
     3  C   -0.045571
     4  C   -0.024121
     5  C   -0.003767
     6  C   -0.025934
     7  C    0.348359
     8  O   -0.243501
 Electronic spatial extent (au):  <R**2>=            879.0692
 Charge=             -0.0000 electrons
 Dipole moment (field-independent basis, Debye):
    X=             -0.5892    Y=              2.4062    Z=              0.0002  Tot=              2.4773
 Quadrupole moment (field-independent basis, Debye-Ang):
   XX=            -40.9769   YY=            -42.7842   ZZ=            -47.7760
   XY=             -4.5475   XZ=              0.0005   YZ=              0.0006
 Traceless Quadrupole moment (field-independent basis, Debye-Ang):
   XX=              2.8688   YY=              1.0615   ZZ=             -3.9303
   XY=             -4.5475   XZ=              0.0005   YZ=              0.0006
 Octapole moment (field-independent basis, Debye-Ang**2):
  XXX=            -13.0708  YYY=             11.8864  ZZZ=              0.0030  XYY=             -4.5396
  XXY=              2.5616  XXZ=             -0.0018  XZZ=            -10.6828  YZZ=              1.8162
  YYZ=             -0.0001  XYZ=             -0.0065
 Hexadecapole moment (field-independent basis, Debye-Ang**3):
 XXXX=           -581.7845 YYYY=           -423.3174 ZZZZ=            -50.7580 XXXY=              4.5308
 XXXZ=              0.0090 YYYX=            -27.5883 YYYZ=             -0.0052 ZZZX=             -0.0057
 ZZZY=              0.0070 XXYY=           -156.6668 XXZZ=           -114.3657 YYZZ=            -82.6722
 XXYZ=              0.0034 YYXZ=              0.0027 ZZXY=             -6.0766
 N-N= 3.481384918317D+02 E-N=-1.540797942577D+03  KE= 3.592472047990D+02
 Calling FoFJK, ICntrl=      2127 FMM=F ISym2X=0 I1Cent= 0 IOpClX= 0 NMat=1 NMatS=1 NMatT=0.
 ***** Axes restored to original set *****
 -------------------------------------------------------------------
 Center     Atomic                   Forces (Hartrees/Bohr)
 Number     Number              X              Y              Z
 -------------------------------------------------------------------
      1        7           0.005191231    0.002175580    0.000088376
      2        6           0.000377658    0.005788933    0.000102491
      3        6           0.002439355    0.004971828    0.000154935
      4        6           0.002459153   -0.000931876    0.000025366
      5        6           0.000472503   -0.001266374   -0.000015469
      6        6          -0.003909868   -0.006699292   -0.000197017
      7        6          -0.004919085    0.007108111    0.000037568
      8        8          -0.022337344   -0.001137881   -0.000415272
      9        1          -0.000420495   -0.000129646   -0.001248468
     10        1          -0.000450049   -0.000142027    0.001282294
     11        1          -0.000899378    0.001159470    0.000010851
     12        1          -0.000544219    0.000515988   -0.000017111
     13        1          -0.002235974   -0.000022074   -0.000027225
     14        1          -0.001905801   -0.001458393   -0.000064669
     15        1           0.026682314   -0.009932347    0.000283349
 -------------------------------------------------------------------
 Cartesian Forces:  Max     0.026682314 RMS     0.005902774

 GradGradGradGradGradGradGradGradGradGradGradGradGradGradGradGradGradGrad
 Berny optimization.
 FormGI is forming the generalized inverse of G from B-inverse, IUseBI=4.
 Internal  Forces:  Max     0.025745703 RMS     0.005403550
 Search for a local minimum.
 Step number   1 out of a maximum of   77
 All quantities printed in internal units (Hartrees-Bohrs-Radians)
 Mixed Optimization -- RFO/linear search
 Second derivative matrix not updated -- first step.
 ITU=  0
     Eigenvalues ---    0.01011   0.01687   0.01948   0.01998   0.02078
     Eigenvalues ---    0.02085   0.02105   0.02108   0.02116   0.02139
     Eigenvalues ---    0.02141   0.05479   0.16000   0.16000   0.16000
     Eigenvalues ---    0.16000   0.16000   0.16000   0.16000   0.22000
     Eigenvalues ---    0.22487   0.24483   0.25000   0.25000   0.34784
     Eigenvalues ---    0.34967   0.35062   0.35105   0.38054   0.40607
     Eigenvalues ---    0.41679   0.44162   0.44452   0.44465   0.45116
     Eigenvalues ---    0.45839   0.46458   0.46553   0.51743
 RFO step:  Lambda=-6.96598366D-03 EMin= 1.01103156D-02
 Linear search not attempted -- first point.
 Iteration  1 RMS(Cart)=  0.05516534 RMS(Int)=  0.00400775
 Iteration  2 RMS(Cart)=  0.00385445 RMS(Int)=  0.00000732
 Iteration  3 RMS(Cart)=  0.00001011 RMS(Int)=  0.00000456
 Iteration  4 RMS(Cart)=  0.00000000 RMS(Int)=  0.00000456
 Variable       Old X    -DE/DX   Delta X   Delta X   Delta X     New X
                                 (Linear)    (Quad)   (Total)
    R1        2.74287  -0.00412   0.00000  -0.01063  -0.01063   2.73223
    R2        1.92602  -0.00075   0.00000  -0.00167  -0.00167   1.92435
    R3        1.92617  -0.00082   0.00000  -0.00182  -0.00182   1.92435
    R4        2.64780  -0.00294   0.00000  -0.00670  -0.00670   2.64111
    R5        2.67482  -0.01217   0.00000  -0.02861  -0.02861   2.64621
    R6        2.63848  -0.00123   0.00000  -0.00213  -0.00213   2.63635
    R7        2.05729  -0.00054   0.00000  -0.00151  -0.00151   2.05578
    R8        2.64988  -0.00351   0.00000  -0.00682  -0.00682   2.64306
    R9        2.05505  -0.00072   0.00000  -0.00200  -0.00200   2.05305
   R10        2.63184  -0.00012   0.00000   0.00007   0.00007   2.63190
   R11        2.06027  -0.00223   0.00000  -0.00630  -0.00630   2.05397
   R12        2.65572  -0.00433   0.00000  -0.01004  -0.01005   2.64567
   R13        2.05574  -0.00222   0.00000  -0.00620  -0.00620   2.04954
   R14        2.58146  -0.01186   0.00000  -0.02262  -0.02262   2.55884
   R15        1.90213  -0.02575   0.00000  -0.05449  -0.05449   1.84764
    A1        1.93052   0.00081   0.00000   0.00356   0.00356   1.93409
    A2        1.93039   0.00083   0.00000   0.00368   0.00368   1.93407
    A3        1.87376  -0.00121   0.00000  -0.00972  -0.00972   1.86404
    A4        2.17865   0.00256   0.00000   0.01104   0.01104   2.18969
    A5        2.03065  -0.00431   0.00000  -0.01568  -0.01568   2.01497
    A6        2.07388   0.00175   0.00000   0.00464   0.00464   2.07852
    A7        2.09652   0.00201   0.00000   0.00911   0.00912   2.10565
    A8        2.09391  -0.00241   0.00000  -0.01297  -0.01297   2.08094
    A9        2.09275   0.00040   0.00000   0.00386   0.00385   2.09660
   A10        2.10075  -0.00369   0.00000  -0.01362  -0.01361   2.08714
   A11        2.09191   0.00161   0.00000   0.00542   0.00542   2.09732
   A12        2.09053   0.00207   0.00000   0.00820   0.00819   2.09872
   A13        2.10752  -0.00108   0.00000  -0.00248  -0.00248   2.10504
   A14        2.08889   0.00046   0.00000   0.00075   0.00075   2.08965
   A15        2.08677   0.00062   0.00000   0.00173   0.00173   2.08850
   A16        2.07149   0.00243   0.00000   0.01029   0.01028   2.08177
   A17        2.12812  -0.00026   0.00000   0.00054   0.00054   2.12867
   A18        2.08357  -0.00216   0.00000  -0.01083  -0.01083   2.07274
   A19        2.11621  -0.00142   0.00000  -0.00795  -0.00796   2.10825
   A20        2.13854  -0.01199   0.00000  -0.04545  -0.04544   2.09310
   A21        2.02844   0.01341   0.00000   0.05339   0.05340   2.08184
   A22        1.93373  -0.02313   0.00000  -0.13853  -0.13853   1.79520
    D1        1.03647  -0.00024   0.00000  -0.00397  -0.00397   1.03250
    D2       -2.10533  -0.00023   0.00000  -0.00375  -0.00375  -2.10908
    D3       -1.03717   0.00023   0.00000   0.00351   0.00352  -1.03365
    D4        2.10422   0.00023   0.00000   0.00373   0.00373   2.10795
    D5        3.14146   0.00000   0.00000   0.00013   0.00013   3.14159
    D6       -0.00016   0.00000   0.00000   0.00018   0.00018   0.00002
    D7        0.00008  -0.00000   0.00000  -0.00010  -0.00010  -0.00002
    D8       -3.14154  -0.00000   0.00000  -0.00004  -0.00004  -3.14158
    D9       -3.14123  -0.00001   0.00000  -0.00035  -0.00035  -3.14158
   D10        0.00020  -0.00001   0.00000  -0.00023  -0.00023  -0.00003
   D11        0.00017  -0.00000   0.00000  -0.00014  -0.00014   0.00003
   D12       -3.14159   0.00000   0.00000  -0.00002  -0.00003   3.14157
   D13       -0.00032   0.00001   0.00000   0.00032   0.00033   0.00000
   D14        3.14119   0.00001   0.00000   0.00027   0.00028   3.14146
   D15        3.14130   0.00001   0.00000   0.00027   0.00027   3.14157
   D16       -0.00037   0.00001   0.00000   0.00022   0.00022  -0.00016
   D17        0.00032  -0.00001   0.00000  -0.00032  -0.00032  -0.00000
   D18       -3.14115  -0.00001   0.00000  -0.00034  -0.00034  -3.14149
   D19       -3.14119  -0.00001   0.00000  -0.00027  -0.00027  -3.14146
   D20        0.00053  -0.00001   0.00000  -0.00029  -0.00029   0.00024
   D21       -0.00007   0.00000   0.00000   0.00008   0.00008   0.00001
   D22        3.14149   0.00000   0.00000   0.00012   0.00012  -3.14158
   D23        3.14140   0.00000   0.00000   0.00010   0.00010   3.14150
   D24       -0.00023   0.00000   0.00000   0.00014   0.00014  -0.00009
   D25       -0.00018   0.00000   0.00000   0.00015   0.00015  -0.00002
   D26        3.14157   0.00000   0.00000   0.00005   0.00005  -3.14157
   D27        3.14145   0.00000   0.00000   0.00011   0.00011   3.14156
   D28        0.00001   0.00000   0.00000   0.00001   0.00001   0.00002
   D29        0.00049  -0.00001   0.00000  -0.00040  -0.00040   0.00010
   D30       -3.14125  -0.00001   0.00000  -0.00029  -0.00029  -3.14154
         Item               Value     Threshold  Converged?
 Maximum Force            0.025746     0.000450     NO 
 RMS     Force            0.005404     0.000300     NO 
 Maximum Displacement     0.383441     0.001800     NO 
 RMS     Displacement     0.053931     0.001200     NO 
 Predicted change in Energy=-3.588202D-03
 GradGradGradGradGradGradGradGradGradGradGradGradGradGradGradGradGradGrad

                          Input orientation:                          
 ---------------------------------------------------------------------
 Center     Atomic      Atomic             Coordinates (Angstroms)
 Number     Number       Type             X           Y           Z
 ---------------------------------------------------------------------
      1          7           0       -2.223509    0.056176   -0.039859
      2          6           0       -0.786809   -0.104389   -0.016420
      3          6           0       -0.107158   -1.325571   -0.026895
      4          6           0        1.287198   -1.363590   -0.001936
      5          6           0        2.010077   -0.166768    0.033912
      6          6           0        1.350682    1.059940    0.044867
      7          6           0       -0.048890    1.085174    0.019583
      8          8           0       -0.690060    2.277786    0.030205
      9          1           0       -2.652156   -0.403904    0.761117
     10          1           0       -2.621932   -0.372201   -0.873368
     11          1           0       -0.678192   -2.251100   -0.054857
     12          1           0        1.807600   -2.317236   -0.010184
     13          1           0        3.096485   -0.193664    0.053315
     14          1           0        1.889144    2.000999    0.072489
     15          1           0       -1.632478    2.018349    0.008029
 ---------------------------------------------------------------------
                    Distance matrix (angstroms):
                    1          2          3          4          5
     1  N    0.000000
     2  C    1.445835   0.000000
     3  C    2.527516   1.397613   0.000000
     4  C    3.787115   2.426376   1.395097   0.000000
     5  C    4.240094   2.798034   2.414374   1.398649   0.000000
     6  C    3.713430   2.434807   2.796625   2.424813   1.392744
     7  C    2.406520   1.400314   2.411898   2.789631   2.409753
     8  O    2.700357   2.384595   3.650647   4.143694   3.642334
     9  H    1.018320   2.042987   2.819123   4.125744   4.724561
    10  H    1.018324   2.042978   2.819490   4.125960   4.724497
    11  H    2.777004   2.149801   1.087872   2.157136   3.402809
    12  H    4.678014   3.409940   2.156380   1.086429   2.160429
    13  H    5.326673   3.884946   3.398673   2.155296   1.086915
    14  H    4.550701   3.406066   3.880872   3.418821   2.171481
    15  H    2.049813   2.285119   3.675544   4.467899   4.247778
                    6          7          8          9         10
     6  C    0.000000
     7  C    1.400028   0.000000
     8  O    2.376550   1.354081   0.000000
     9  H    4.321871   3.089372   3.402281   0.000000
    10  H    4.321556   3.088988   3.401618   1.635071   0.000000
    11  H    3.884490   3.395922   4.529700   2.823912   2.824596
    12  H    3.408391   3.876060   5.230122   4.913774   4.914164
    13  H    2.149285   3.395578   4.521783   5.795866   5.795767
    14  H    1.084572   2.144181   2.594358   5.184706   5.184259
    15  H    3.133552   1.838124   0.977728   2.733897   2.733242
                   11         12         13         14         15
    11  H    0.000000
    12  H    2.487073   0.000000
    13  H    4.300342   2.484918   0.000000
    14  H    4.968680   4.319797   2.504912   0.000000
    15  H    4.375250   5.534598   5.220934   3.522255   0.000000
 Stoichiometry    C6H7NO
 Framework group  C1[X(C6H7NO)]
 Deg. of freedom    39
 Full point group                 C1      NOp   1
 Largest Abelian subgroup         C1      NOp   1
 Largest concise Abelian subgroup C1      NOp   1
                         Standard orientation:                         
 ---------------------------------------------------------------------
 Center     Atomic      Atomic             Coordinates (Angstroms)
 Number     Number       Type             X           Y           Z
 ---------------------------------------------------------------------
      1          7           0       -1.941144    1.108542   -0.000028
      2          6           0       -0.577355    0.628419   -0.000016
      3          6           0        0.565466    1.432958   -0.000005
      4          6           0        1.837863    0.860854    0.000013
      5          6           0        1.968866   -0.531647    0.000015
      6          6           0        0.841889   -1.349972   -0.000000
      7          6           0       -0.429651   -0.764084   -0.000030
      8          8           0       -1.525397   -1.559618   -0.000017
      9          1           0       -2.120414    1.689005   -0.817280
     10          1           0       -2.120725    1.688117    0.817791
     11          1           0        0.453335    2.515036    0.000013
     12          1           0        2.720993    1.493634   -0.000100
     13          1           0        2.959065   -0.979854    0.000124
     14          1           0        0.917933   -2.431875    0.000014
     15          1           0       -2.261479   -0.916086   -0.000091
 ---------------------------------------------------------------------
 Rotational constants (GHZ):           3.3748155           2.2087739           1.3445903
 Standard basis: 6-31G(d) (6D, 7F)
 There are   134 symmetry adapted cartesian basis functions of A   symmetry.
 There are   134 symmetry adapted basis functions of A   symmetry.
   134 basis functions,   252 primitive gaussians,   134 cartesian basis functions
    29 alpha electrons       29 beta electrons
       nuclear repulsion energy       350.5229323671 Hartrees.
 NAtoms=   15 NActive=   15 NUniq=   15 SFac= 1.00D+00 NAtFMM=   60 NAOKFM=F Big=F
 Integral buffers will be    131072 words long.
 Raffenetti 2 integral format.
 Two-electron integral symmetry is turned on.
 One-electron integrals computed using PRISM.
 NBasis=   134 RedAO= T EigKep=  4.05D-04  NBF=   134
 NBsUse=   134 1.00D-06 EigRej= -1.00D+00 NBFU=   134
 Initial guess from the checkpoint file:  "2_#_opt_freq_b3lyp_6-31G_d_geom_allcheck_guess_read.chk"
 B after Tr=     0.000000    0.000000   -0.000000
         Rot=    1.000000   -0.000002    0.000003    0.000644 Ang=  -0.07 deg.
 ExpMin= 1.61D-01 ExpMax= 5.48D+03 ExpMxC= 8.25D+02 IAcc=2 IRadAn=         4 AccDes= 0.00D+00
 Harris functional with IExCor=  402 and IRadAn=       4 diagonalized for initial guess.
 HarFok:  IExCor=  402 AccDes= 0.00D+00 IRadAn=         4 IDoV= 1 UseB2=F ITyADJ=14
 ICtDFT=  3500011 ScaDFX=  1.000000  1.000000  1.000000  1.000000
 FoFCou: FMM=F IPFlag=           0 FMFlag=      100000 FMFlg1=           0
         NFxFlg=           0 DoJE=T BraDBF=F KetDBF=T FulRan=T
         wScrn=  0.000000 ICntrl=       500 IOpCl=  0 I1Cent=   200000004 NGrid=           0
         NMat0=    1 NMatS0=      1 NMatT0=    0 NMatD0=    1 NMtDS0=    0 NMtDT0=    0
 Petite list used in FoFCou.
 Requested convergence on RMS density matrix=1.00D-08 within 128 cycles.
 Requested convergence on MAX density matrix=1.00D-06.
 Requested convergence on             energy=1.00D-06.
 No special actions if energy rises.
 Integral accuracy reduced to 1.0D-05 until final iterations.
 Initial convergence to 1.0D-05 achieved.  Increase integral accuracy.
 SCF Done:  E(RB3LYP) =  -362.818484022     A.U. after   12 cycles
            NFock= 12  Conv=0.43D-08     -V/T= 2.0094
 Calling FoFJK, ICntrl=      2127 FMM=F ISym2X=0 I1Cent= 0 IOpClX= 0 NMat=1 NMatS=1 NMatT=0.
 ***** Axes restored to original set *****
 -------------------------------------------------------------------
 Center     Atomic                   Forces (Hartrees/Bohr)
 Number     Number              X              Y              Z
 -------------------------------------------------------------------
      1        7           0.000970675   -0.000359224    0.000007206
      2        6           0.000882010   -0.005327589   -0.000084195
      3        6          -0.000794247   -0.000092771   -0.000016440
      4        6           0.000271735   -0.000662776    0.000002125
      5        6           0.000025977    0.000678564    0.000006368
      6        6          -0.000335591   -0.003103138   -0.000064972
      7        6           0.006935393    0.006584742    0.000248159
      8        8           0.000326137   -0.000523837   -0.000003989
      9        1          -0.000778371    0.000306652    0.000245802
     10        1          -0.000769963    0.000314985   -0.000261457
     11        1          -0.000405855   -0.000223393   -0.000010348
     12        1          -0.000366496    0.000083756   -0.000011291
     13        1           0.000020266    0.000336978    0.000011789
     14        1           0.000462402    0.000291682    0.000013908
     15        1          -0.006444072    0.001695369   -0.000082665
 -------------------------------------------------------------------
 Cartesian Forces:  Max     0.006935393 RMS     0.002001100

 GradGradGradGradGradGradGradGradGradGradGradGradGradGradGradGradGradGrad
 Berny optimization.
 Using GEDIIS/GDIIS optimizer.
 FormGI is forming the generalized inverse of G from B-inverse, IUseBI=4.
 Internal  Forces:  Max     0.006181269 RMS     0.001518453
 Search for a local minimum.
 Step number   2 out of a maximum of   77
 All quantities printed in internal units (Hartrees-Bohrs-Radians)
 Mixed Optimization -- RFO/linear search
 Update second derivatives using D2CorX and points    1    2
 DE= -3.21D-03 DEPred=-3.59D-03 R= 8.94D-01
 TightC=F SS=  1.41D+00  RLast= 1.74D-01 DXNew= 5.0454D-01 5.2149D-01
 Trust test= 8.94D-01 RLast= 1.74D-01 DXMaxT set to 5.05D-01
 ITU=  1  0
 Use linear search instead of GDIIS.
     Eigenvalues ---    0.01011   0.01689   0.01950   0.02000   0.02078
     Eigenvalues ---    0.02085   0.02105   0.02108   0.02116   0.02139
     Eigenvalues ---    0.02141   0.05476   0.15788   0.16000   0.16000
     Eigenvalues ---    0.16000   0.16000   0.16000   0.18607   0.21756
     Eigenvalues ---    0.22105   0.22888   0.24827   0.25014   0.34779
     Eigenvalues ---    0.34970   0.35079   0.35102   0.38077   0.41063
     Eigenvalues ---    0.41600   0.44352   0.44456   0.44472   0.45121
     Eigenvalues ---    0.45837   0.46457   0.49354   0.54699
 RFO step:  Lambda=-3.46105184D-04 EMin= 1.01103174D-02
 Quartic linear search produced a step of -0.10983.
 Iteration  1 RMS(Cart)=  0.00852195 RMS(Int)=  0.00005668
 Iteration  2 RMS(Cart)=  0.00006562 RMS(Int)=  0.00001832
 Iteration  3 RMS(Cart)=  0.00000000 RMS(Int)=  0.00001832
 Variable       Old X    -DE/DX   Delta X   Delta X   Delta X     New X
                                 (Linear)    (Quad)   (Total)
    R1        2.73223   0.00060   0.00117  -0.00043   0.00074   2.73297
    R2        1.92435   0.00038   0.00018   0.00048   0.00066   1.92501
    R3        1.92435   0.00038   0.00020   0.00045   0.00065   1.92501
    R4        2.64111  -0.00079   0.00074  -0.00257  -0.00184   2.63927
    R5        2.64621   0.00458   0.00314   0.00471   0.00785   2.65406
    R6        2.63635  -0.00001   0.00023  -0.00044  -0.00022   2.63614
    R7        2.05578   0.00040   0.00017   0.00076   0.00093   2.05671
    R8        2.64306   0.00102   0.00075   0.00066   0.00141   2.64447
    R9        2.05305  -0.00025   0.00022  -0.00098  -0.00076   2.05229
   R10        2.63190   0.00008  -0.00001   0.00005   0.00004   2.63195
   R11        2.05397   0.00001   0.00069  -0.00107  -0.00038   2.05360
   R12        2.64567   0.00013   0.00110  -0.00140  -0.00030   2.64537
   R13        2.04954   0.00048   0.00068   0.00014   0.00083   2.05037
   R14        2.55884   0.00393   0.00248   0.00292   0.00541   2.56425
   R15        1.84764   0.00576   0.00598   0.00172   0.00770   1.85534
    A1        1.93409   0.00115  -0.00039   0.00961   0.00917   1.94326
    A2        1.93407   0.00115  -0.00040   0.00965   0.00919   1.94326
    A3        1.86404  -0.00043   0.00107   0.00066   0.00163   1.86567
    A4        2.18969   0.00023  -0.00121   0.00257   0.00136   2.19105
    A5        2.01497  -0.00210   0.00172  -0.01053  -0.00881   2.00617
    A6        2.07852   0.00187  -0.00051   0.00796   0.00745   2.08597
    A7        2.10565  -0.00071  -0.00100  -0.00113  -0.00214   2.10350
    A8        2.08094   0.00012   0.00142  -0.00236  -0.00093   2.08001
    A9        2.09660   0.00059  -0.00042   0.00349   0.00307   2.09967
   A10        2.08714  -0.00010   0.00149  -0.00341  -0.00192   2.08522
   A11        2.09732  -0.00024  -0.00059  -0.00017  -0.00076   2.09656
   A12        2.09872   0.00034  -0.00090   0.00358   0.00268   2.10141
   A13        2.10504   0.00082   0.00027   0.00223   0.00250   2.10754
   A14        2.08965  -0.00006  -0.00008   0.00071   0.00063   2.09028
   A15        2.08850  -0.00076  -0.00019  -0.00294  -0.00313   2.08537
   A16        2.08177   0.00070  -0.00113   0.00455   0.00343   2.08521
   A17        2.12867  -0.00061  -0.00006  -0.00265  -0.00271   2.12596
   A18        2.07274  -0.00009   0.00119  -0.00191  -0.00072   2.07202
   A19        2.10825  -0.00257   0.00087  -0.01020  -0.00932   2.09893
   A20        2.09310  -0.00181   0.00499  -0.01482  -0.00983   2.08327
   A21        2.08184   0.00438  -0.00586   0.02502   0.01915   2.10099
   A22        1.79520   0.00618   0.01521   0.00767   0.02288   1.81808
    D1        1.03250   0.00046   0.00044   0.00649   0.00697   1.03947
    D2       -2.10908   0.00047   0.00041   0.00659   0.00705  -2.10203
    D3       -1.03365  -0.00046  -0.00039  -0.00661  -0.00704  -1.04069
    D4        2.10795  -0.00046  -0.00041  -0.00651  -0.00696   2.10099
    D5        3.14159  -0.00000  -0.00001   0.00005   0.00003  -3.14157
    D6        0.00002  -0.00000  -0.00002   0.00007   0.00005   0.00007
    D7       -0.00002  -0.00000   0.00001  -0.00006  -0.00005  -0.00007
    D8       -3.14158  -0.00000   0.00000  -0.00003  -0.00003   3.14157
    D9       -3.14158   0.00000   0.00004  -0.00012  -0.00008   3.14153
   D10       -0.00003   0.00000   0.00003   0.00001   0.00004   0.00001
   D11        0.00003   0.00000   0.00002  -0.00002  -0.00001   0.00002
   D12        3.14157   0.00000   0.00000   0.00011   0.00011  -3.14150
   D13        0.00000  -0.00000  -0.00004   0.00012   0.00009   0.00009
   D14        3.14146   0.00000  -0.00003   0.00021   0.00018  -3.14154
   D15        3.14157  -0.00000  -0.00003   0.00010   0.00007  -3.14155
   D16       -0.00016   0.00000  -0.00002   0.00018   0.00016   0.00000
   D17       -0.00000   0.00000   0.00003  -0.00010  -0.00007  -0.00007
   D18       -3.14149  -0.00000   0.00004  -0.00021  -0.00018   3.14152
   D19       -3.14146  -0.00000   0.00003  -0.00019  -0.00016   3.14156
   D20        0.00024  -0.00000   0.00003  -0.00030  -0.00027  -0.00003
   D21        0.00001  -0.00000  -0.00001   0.00002   0.00001   0.00002
   D22       -3.14158  -0.00000  -0.00001  -0.00001  -0.00003   3.14158
   D23        3.14150   0.00000  -0.00001   0.00013   0.00012  -3.14157
   D24       -0.00009   0.00000  -0.00002   0.00010   0.00008  -0.00001
   D25       -0.00002  -0.00000  -0.00002   0.00004   0.00003   0.00000
   D26       -3.14157  -0.00000  -0.00001  -0.00009  -0.00009   3.14152
   D27        3.14156   0.00000  -0.00001   0.00008   0.00006  -3.14156
   D28        0.00002  -0.00000  -0.00000  -0.00006  -0.00006  -0.00004
   D29        0.00010   0.00000   0.00004  -0.00006  -0.00002   0.00008
   D30       -3.14154   0.00000   0.00003   0.00007   0.00010  -3.14144
         Item               Value     Threshold  Converged?
 Maximum Force            0.006181     0.000450     NO 
 RMS     Force            0.001518     0.000300     NO 
 Maximum Displacement     0.042006     0.001800     NO 
 RMS     Displacement     0.008520     0.001200     NO 
 Predicted change in Energy=-2.317503D-04
 GradGradGradGradGradGradGradGradGradGradGradGradGradGradGradGradGradGrad

                          Input orientation:                          
 ---------------------------------------------------------------------
 Center     Atomic      Atomic             Coordinates (Angstroms)
 Number     Number       Type             X           Y           Z
 ---------------------------------------------------------------------
      1          7           0       -2.216122    0.057568   -0.039706
      2          6           0       -0.779602   -0.108074   -0.016415
      3          6           0       -0.103044   -1.329860   -0.026893
      4          6           0        1.291198   -1.367876   -0.001954
      5          6           0        2.012163   -0.169031    0.033918
      6          6           0        1.353472    1.058081    0.044852
      7          6           0       -0.045832    1.088931    0.019627
      8          8           0       -0.706367    2.274206    0.029823
      9          1           0       -2.654259   -0.392806    0.762097
     10          1           0       -2.624082   -0.361137   -0.873938
     11          1           0       -0.677179   -2.254047   -0.054841
     12          1           0        1.810680   -2.321566   -0.010338
     13          1           0        3.098434   -0.193156    0.053522
     14          1           0        1.895247    1.997738    0.072549
     15          1           0       -1.654707    2.021029    0.007695
 ---------------------------------------------------------------------
                    Distance matrix (angstroms):
                    1          2          3          4          5
     1  N    0.000000
     2  C    1.446226   0.000000
     3  C    2.527888   1.396640   0.000000
     4  C    3.786108   2.423948   1.394983   0.000000
     5  C    4.234992   2.792884   2.413570   1.399395   0.000000
     6  C    3.708123   2.431805   2.798007   2.427207   1.392766
     7  C    2.403619   1.404470   2.419914   2.797144   2.412056
     8  O    2.682849   2.383854   3.654656   4.154039   3.655110
     9  H    1.018670   2.049754   2.830066   4.135356   4.728193
    10  H    1.018670   2.049754   2.830467   4.135614   4.728200
    11  H    2.777074   2.148760   1.088363   2.159307   3.404075
    12  H    4.677208   3.407220   2.155480   1.086027   2.162397
    13  H    5.321283   3.879600   3.398238   2.156187   1.086716
    14  H    4.547550   3.405463   3.882778   3.420202   2.170265
    15  H    2.042697   2.302057   3.692873   4.490337   4.271180
                    6          7          8          9         10
     6  C    0.000000
     7  C    1.399872   0.000000
     8  O    2.392096   1.356941   0.000000
     9  H    4.322201   3.090420   3.382819   0.000000
    10  H    4.321954   3.090069   3.382225   1.636620   0.000000
    11  H    3.886344   3.402888   4.529139   2.835569   2.836276
    12  H    3.410879   3.883172   5.240063   4.924678   4.925059
    13  H    2.147221   3.395777   4.534859   5.799605   5.799620
    14  H    1.085009   2.143950   2.616611   5.185382   5.185023
    15  H    3.158764   1.859416   0.981803   2.719343   2.718764
                   11         12         13         14         15
    11  H    0.000000
    12  H    2.489173   0.000000
    13  H    4.302821   2.488477   0.000000
    14  H    4.971044   4.320927   2.499608   0.000000
    15  H    4.385857   5.555840   5.243764   3.550622   0.000000
 Stoichiometry    C6H7NO
 Framework group  C1[X(C6H7NO)]
 Deg. of freedom    39
 Full point group                 C1      NOp   1
 Largest Abelian subgroup         C1      NOp   1
 Largest concise Abelian subgroup C1      NOp   1
                         Standard orientation:                         
 ---------------------------------------------------------------------
 Center     Atomic      Atomic             Coordinates (Angstroms)
 Number     Number       Type             X           Y           Z
 ---------------------------------------------------------------------
      1          7           0       -1.929343    1.115504   -0.000041
      2          6           0       -0.566570    0.631338    0.000025
      3          6           0        0.578846    1.430479   -0.000022
      4          6           0        1.847467    0.850325    0.000019
      5          6           0        1.966982   -0.543956   -0.000006
      6          6           0        0.835265   -1.355753    0.000014
      7          6           0       -0.434746   -0.766932    0.000031
      8          8           0       -1.549698   -1.540347   -0.000032
      9          1           0       -2.117695    1.692545   -0.818110
     10          1           0       -2.118059    1.691742    0.818510
     11          1           0        0.470240    2.513411   -0.000046
     12          1           0        2.733804    1.477910    0.000029
     13          1           0        2.952962   -1.000897   -0.000045
     14          1           0        0.908004   -2.438321   -0.000015
     15          1           0       -2.289736   -0.895149   -0.000145
 ---------------------------------------------------------------------
 Rotational constants (GHZ):           3.3881396           2.1992846           1.3431851
 Standard basis: 6-31G(d) (6D, 7F)
 There are   134 symmetry adapted cartesian basis functions of A   symmetry.
 There are   134 symmetry adapted basis functions of A   symmetry.
   134 basis functions,   252 primitive gaussians,   134 cartesian basis functions
    29 alpha electrons       29 beta electrons
       nuclear repulsion energy       350.2999705862 Hartrees.
 NAtoms=   15 NActive=   15 NUniq=   15 SFac= 1.00D+00 NAtFMM=   60 NAOKFM=F Big=F
 Integral buffers will be    131072 words long.
 Raffenetti 2 integral format.
 Two-electron integral symmetry is turned on.
 One-electron integrals computed using PRISM.
 NBasis=   134 RedAO= T EigKep=  4.07D-04  NBF=   134
 NBsUse=   134 1.00D-06 EigRej= -1.00D+00 NBFU=   134
 Initial guess from the checkpoint file:  "2_#_opt_freq_b3lyp_6-31G_d_geom_allcheck_guess_read.chk"
 B after Tr=     0.000000   -0.000000   -0.000000
         Rot=    0.999993    0.000001    0.000000    0.003766 Ang=   0.43 deg.
 ExpMin= 1.61D-01 ExpMax= 5.48D+03 ExpMxC= 8.25D+02 IAcc=2 IRadAn=         4 AccDes= 0.00D+00
 Harris functional with IExCor=  402 and IRadAn=       4 diagonalized for initial guess.
 HarFok:  IExCor=  402 AccDes= 0.00D+00 IRadAn=         4 IDoV= 1 UseB2=F ITyADJ=14
 ICtDFT=  3500011 ScaDFX=  1.000000  1.000000  1.000000  1.000000
 FoFCou: FMM=F IPFlag=           0 FMFlag=      100000 FMFlg1=           0
         NFxFlg=           0 DoJE=T BraDBF=F KetDBF=T FulRan=T
         wScrn=  0.000000 ICntrl=       500 IOpCl=  0 I1Cent=   200000004 NGrid=           0
         NMat0=    1 NMatS0=      1 NMatT0=    0 NMatD0=    1 NMtDS0=    0 NMtDT0=    0
 Petite list used in FoFCou.
 Requested convergence on RMS density matrix=1.00D-08 within 128 cycles.
 Requested convergence on MAX density matrix=1.00D-06.
 Requested convergence on             energy=1.00D-06.
 No special actions if energy rises.
 Integral accuracy reduced to 1.0D-05 until final iterations.
 Initial convergence to 1.0D-05 achieved.  Increase integral accuracy.
 SCF Done:  E(RB3LYP) =  -362.818705115     A.U. after   11 cycles
            NFock= 11  Conv=0.26D-08     -V/T= 2.0095
 Calling FoFJK, ICntrl=      2127 FMM=F ISym2X=0 I1Cent= 0 IOpClX= 0 NMat=1 NMatS=1 NMatT=0.
 ***** Axes restored to original set *****
 -------------------------------------------------------------------
 Center     Atomic                   Forces (Hartrees/Bohr)
 Number     Number              X              Y              Z
 -------------------------------------------------------------------
      1        7          -0.000292940   -0.000736649   -0.000018952
      2        6          -0.000212606   -0.002405808   -0.000045065
      3        6          -0.001358912    0.000159898   -0.000029492
      4        6           0.000721003    0.000415576    0.000027432
      5        6          -0.000423847   -0.000591590   -0.000023058
      6        6          -0.001125782    0.000401412   -0.000012846
      7        6           0.000548459    0.003257989    0.000076311
      8        8           0.002659451   -0.000076649    0.000043009
      9        1          -0.000005860    0.000104755   -0.000041353
     10        1          -0.000008759    0.000100563    0.000042645
     11        1          -0.000038672    0.000012084   -0.000001031
     12        1           0.000009173    0.000011976    0.000001936
     13        1           0.000125839    0.000223959    0.000004931
     14        1           0.000549200    0.000082178    0.000012092
     15        1          -0.001145746   -0.000959694   -0.000036558
 -------------------------------------------------------------------
 Cartesian Forces:  Max     0.003257989 RMS     0.000838344

 GradGradGradGradGradGradGradGradGradGradGradGradGradGradGradGradGradGrad
 Berny optimization.
 Using GEDIIS/GDIIS optimizer.
 FormGI is forming the generalized inverse of G from B-inverse, IUseBI=4.
 Internal  Forces:  Max     0.002810115 RMS     0.000520539
 Search for a local minimum.
 Step number   3 out of a maximum of   77
 All quantities printed in internal units (Hartrees-Bohrs-Radians)
 Mixed Optimization -- En-DIIS/RFO-DIIS
 Update second derivatives using D2CorX and points    1    2    3
 DE= -2.21D-04 DEPred=-2.32D-04 R= 9.54D-01
 TightC=F SS=  1.41D+00  RLast= 4.24D-02 DXNew= 8.4853D-01 1.2721D-01
 Trust test= 9.54D-01 RLast= 4.24D-02 DXMaxT set to 5.05D-01
 ITU=  1  1  0
 Use linear search instead of GDIIS.
     Eigenvalues ---    0.01011   0.01692   0.01950   0.02001   0.02078
     Eigenvalues ---    0.02085   0.02105   0.02108   0.02116   0.02139
     Eigenvalues ---    0.02141   0.05235   0.14707   0.16000   0.16000
     Eigenvalues ---    0.16000   0.16000   0.16052   0.18481   0.21925
     Eigenvalues ---    0.22528   0.23633   0.24800   0.26762   0.34781
     Eigenvalues ---    0.34969   0.35073   0.35101   0.38074   0.40409
     Eigenvalues ---    0.41723   0.43422   0.44457   0.44487   0.45174
     Eigenvalues ---    0.45863   0.46497   0.47646   0.58645
 RFO step:  Lambda=-4.89582273D-05 EMin= 1.01103174D-02
 Quartic linear search produced a step of -0.02071.
 Iteration  1 RMS(Cart)=  0.00220141 RMS(Int)=  0.00000400
 Iteration  2 RMS(Cart)=  0.00000462 RMS(Int)=  0.00000082
 Iteration  3 RMS(Cart)=  0.00000000 RMS(Int)=  0.00000082
 Variable       Old X    -DE/DX   Delta X   Delta X   Delta X     New X
                                 (Linear)    (Quad)   (Total)
    R1        2.73297   0.00025  -0.00002   0.00068   0.00066   2.73363
    R2        1.92501  -0.00008  -0.00001  -0.00008  -0.00009   1.92491
    R3        1.92501  -0.00007  -0.00001  -0.00007  -0.00009   1.92492
    R4        2.63927  -0.00080   0.00004  -0.00192  -0.00188   2.63739
    R5        2.65406   0.00281  -0.00016   0.00745   0.00729   2.66135
    R6        2.63614   0.00058   0.00000   0.00113   0.00114   2.63727
    R7        2.05671   0.00001  -0.00002   0.00016   0.00014   2.05685
    R8        2.64447  -0.00020  -0.00003  -0.00038  -0.00041   2.64407
    R9        2.05229  -0.00001   0.00002  -0.00014  -0.00012   2.05217
   R10        2.63195   0.00013  -0.00000   0.00019   0.00019   2.63213
   R11        2.05360   0.00012   0.00001   0.00025   0.00026   2.05385
   R12        2.64537  -0.00073   0.00001  -0.00166  -0.00165   2.64372
   R13        2.05037   0.00035  -0.00002   0.00105   0.00103   2.05140
   R14        2.56425  -0.00164  -0.00011  -0.00242  -0.00254   2.56171
   R15        1.85534   0.00135  -0.00016   0.00365   0.00349   1.85883
    A1        1.94326   0.00009  -0.00019   0.00232   0.00213   1.94539
    A2        1.94326   0.00009  -0.00019   0.00232   0.00213   1.94539
    A3        1.86567  -0.00000  -0.00003   0.00092   0.00089   1.86656
    A4        2.19105  -0.00074  -0.00003  -0.00281  -0.00283   2.18822
    A5        2.00617   0.00062   0.00018   0.00086   0.00104   2.00721
    A6        2.08597   0.00011  -0.00015   0.00195   0.00179   2.08776
    A7        2.10350  -0.00032   0.00004  -0.00158  -0.00154   2.10196
    A8        2.08001   0.00012   0.00002   0.00021   0.00023   2.08024
    A9        2.09967   0.00020  -0.00006   0.00137   0.00131   2.10098
   A10        2.08522   0.00019   0.00004   0.00015   0.00019   2.08541
   A11        2.09656  -0.00008   0.00002  -0.00025  -0.00023   2.09632
   A12        2.10141  -0.00011  -0.00006   0.00010   0.00004   2.10145
   A13        2.10754   0.00045  -0.00005   0.00188   0.00183   2.10937
   A14        2.09028   0.00001  -0.00001   0.00074   0.00073   2.09101
   A15        2.08537  -0.00046   0.00006  -0.00262  -0.00256   2.08281
   A16        2.08521  -0.00012  -0.00007  -0.00010  -0.00017   2.08504
   A17        2.12596  -0.00039   0.00006  -0.00278  -0.00272   2.12324
   A18        2.07202   0.00051   0.00001   0.00287   0.00289   2.07491
   A19        2.09893  -0.00031   0.00019  -0.00229  -0.00210   2.09683
   A20        2.08327   0.00062   0.00020   0.00058   0.00079   2.08405
   A21        2.10099  -0.00031  -0.00040   0.00171   0.00131   2.10230
   A22        1.81808  -0.00117  -0.00047  -0.00451  -0.00498   1.81310
    D1        1.03947   0.00006  -0.00014   0.00221   0.00207   1.04154
    D2       -2.10203   0.00006  -0.00015   0.00215   0.00201  -2.10003
    D3       -1.04069  -0.00006   0.00015  -0.00205  -0.00191  -1.04260
    D4        2.10099  -0.00006   0.00014  -0.00211  -0.00197   2.09902
    D5       -3.14157  -0.00000  -0.00000  -0.00001  -0.00001  -3.14157
    D6        0.00007  -0.00000  -0.00000  -0.00006  -0.00006   0.00002
    D7       -0.00007   0.00000   0.00000   0.00005   0.00006  -0.00001
    D8        3.14157   0.00000   0.00000   0.00001   0.00001   3.14158
    D9        3.14153   0.00000   0.00000   0.00009   0.00009  -3.14157
   D10        0.00001   0.00000  -0.00000   0.00002   0.00002   0.00003
   D11        0.00002   0.00000   0.00000   0.00003   0.00003   0.00005
   D12       -3.14150  -0.00000  -0.00000  -0.00003  -0.00004  -3.14154
   D13        0.00009  -0.00000  -0.00000  -0.00013  -0.00013  -0.00004
   D14       -3.14154  -0.00000  -0.00000  -0.00003  -0.00004  -3.14158
   D15       -3.14155  -0.00000  -0.00000  -0.00008  -0.00008   3.14156
   D16        0.00000  -0.00000  -0.00000   0.00002   0.00001   0.00002
   D17       -0.00007   0.00000   0.00000   0.00012   0.00012   0.00005
   D18        3.14152   0.00000   0.00000   0.00008   0.00008  -3.14159
   D19        3.14156   0.00000   0.00000   0.00002   0.00002   3.14159
   D20       -0.00003   0.00000   0.00001  -0.00002  -0.00002  -0.00005
   D21        0.00002  -0.00000  -0.00000  -0.00003  -0.00003  -0.00001
   D22        3.14158  -0.00000   0.00000  -0.00004  -0.00004   3.14154
   D23       -3.14157  -0.00000  -0.00000   0.00001   0.00001  -3.14156
   D24       -0.00001  -0.00000  -0.00000   0.00000   0.00000  -0.00000
   D25        0.00000  -0.00000  -0.00000  -0.00005  -0.00005  -0.00004
   D26        3.14152   0.00000   0.00000   0.00002   0.00002   3.14155
   D27       -3.14156  -0.00000  -0.00000  -0.00004  -0.00004   3.14159
   D28       -0.00004   0.00000   0.00000   0.00003   0.00003  -0.00001
   D29        0.00008   0.00000   0.00000   0.00014   0.00014   0.00022
   D30       -3.14144   0.00000  -0.00000   0.00007   0.00007  -3.14137
         Item               Value     Threshold  Converged?
 Maximum Force            0.002810     0.000450     NO 
 RMS     Force            0.000521     0.000300     NO 
 Maximum Displacement     0.008782     0.001800     NO 
 RMS     Displacement     0.002203     0.001200     NO 
 Predicted change in Energy=-2.458291D-05
 GradGradGradGradGradGradGradGradGradGradGradGradGradGradGradGradGradGrad

                          Input orientation:                          
 ---------------------------------------------------------------------
 Center     Atomic      Atomic             Coordinates (Angstroms)
 Number     Number       Type             X           Y           Z
 ---------------------------------------------------------------------
      1          7           0       -2.216470    0.054449   -0.039813
      2          6           0       -0.779302   -0.108586   -0.016400
      3          6           0       -0.104435   -1.330169   -0.026927
      4          6           0        1.290428   -1.367436   -0.001906
      5          6           0        2.010852   -0.168515    0.033876
      6          6           0        1.353913    1.059647    0.044870
      7          6           0       -0.044479    1.092294    0.019747
      8          8           0       -0.704376    2.276389    0.029911
      9          1           0       -2.655601   -0.394420    0.762228
     10          1           0       -2.625354   -0.362797   -0.874267
     11          1           0       -0.679310   -2.253981   -0.054898
     12          1           0        1.810180   -2.320905   -0.010266
     13          1           0        3.097285   -0.191458    0.053473
     14          1           0        1.899894    1.997496    0.072582
     15          1           0       -1.653223    2.017991    0.007788
 ---------------------------------------------------------------------
                    Distance matrix (angstroms):
                    1          2          3          4          5
     1  N    0.000000
     2  C    1.446575   0.000000
     3  C    2.525476   1.395644   0.000000
     4  C    3.784380   2.422540   1.395585   0.000000
     5  C    4.233839   2.791250   2.414037   1.399179   0.000000
     6  C    3.710152   2.432926   2.800563   2.428364   1.392864
     7  C    2.407948   1.408327   2.423655   2.798700   2.411270
     8  O    2.688551   2.386601   3.656559   4.154241   3.653770
     9  H    1.018621   2.051453   2.829636   4.135433   4.728351
    10  H    1.018624   2.051455   2.829988   4.135658   4.728306
    11  H    2.773434   2.148069   1.088436   2.160704   3.404999
    12  H    4.675157   3.405850   2.155826   1.085963   2.162175
    13  H    5.320260   3.878102   3.399137   2.156553   1.086852
    14  H    4.553298   3.409046   3.885948   3.420492   2.169197
    15  H    2.043284   2.299272   3.689191   4.486234   4.266958
                    6          7          8          9         10
     6  C    0.000000
     7  C    1.398999   0.000000
     8  O    2.391075   1.355599   0.000000
     9  H    4.324941   3.095085   3.387740   0.000000
    10  H    4.324665   3.094749   3.387182   1.637080   0.000000
    11  H    3.888969   3.406778   4.531233   2.833970   2.834613
    12  H    3.411650   3.884661   5.240203   4.924560   4.924901
    13  H    2.145852   3.394088   4.532488   5.799932   5.799884
    14  H    1.085553   2.145406   2.619509   5.191282   5.190894
    15  H    3.156369   1.856102   0.983651   2.719129   2.718678
                   11         12         13         14         15
    11  H    0.000000
    12  H    2.490790   0.000000
    13  H    4.304464   2.489025   0.000000
    14  H    4.974294   4.320128   2.495121   0.000000
    15  H    4.382029   5.551712   5.239378   3.553767   0.000000
 Stoichiometry    C6H7NO
 Framework group  C1[X(C6H7NO)]
 Deg. of freedom    39
 Full point group                 C1      NOp   1
 Largest Abelian subgroup         C1      NOp   1
 Largest concise Abelian subgroup C1      NOp   1
                         Standard orientation:                         
 ---------------------------------------------------------------------
 Center     Atomic      Atomic             Coordinates (Angstroms)
 Number     Number       Type             X           Y           Z
 ---------------------------------------------------------------------
      1          7           0       -1.929297    1.116932   -0.000002
      2          6           0       -0.566609    0.631483    0.000006
      3          6           0        0.576408    1.432317   -0.000017
      4          6           0        1.845830    0.852468   -0.000031
      5          6           0        1.966202   -0.541523    0.000027
      6          6           0        0.836401   -1.356152    0.000038
      7          6           0       -0.434162   -0.770602    0.000001
      8          8           0       -1.547257   -1.544337   -0.000042
      9          1           0       -2.119769    1.692864   -0.818300
     10          1           0       -2.120057    1.692085    0.818780
     11          1           0        0.465902    2.515128   -0.000028
     12          1           0        2.731693    1.480611   -0.000035
     13          1           0        2.952259   -0.998623    0.000022
     14          1           0        0.914781   -2.438871    0.000038
     15          1           0       -2.286093   -0.894960   -0.000271
 ---------------------------------------------------------------------
 Rotational constants (GHZ):           3.3788352           2.2016734           1.3426145
 Standard basis: 6-31G(d) (6D, 7F)
 There are   134 symmetry adapted cartesian basis functions of A   symmetry.
 There are   134 symmetry adapted basis functions of A   symmetry.
   134 basis functions,   252 primitive gaussians,   134 cartesian basis functions
    29 alpha electrons       29 beta electrons
       nuclear repulsion energy       350.2151698262 Hartrees.
 NAtoms=   15 NActive=   15 NUniq=   15 SFac= 1.00D+00 NAtFMM=   60 NAOKFM=F Big=F
 Integral buffers will be    131072 words long.
 Raffenetti 2 integral format.
 Two-electron integral symmetry is turned on.
 One-electron integrals computed using PRISM.
 NBasis=   134 RedAO= T EigKep=  4.08D-04  NBF=   134
 NBsUse=   134 1.00D-06 EigRej= -1.00D+00 NBFU=   134
 Initial guess from the checkpoint file:  "2_#_opt_freq_b3lyp_6-31G_d_geom_allcheck_guess_read.chk"
 B after Tr=    -0.000000    0.000000   -0.000000
         Rot=    1.000000    0.000000   -0.000000   -0.000506 Ang=   0.06 deg.
 Requested convergence on RMS density matrix=1.00D-08 within 128 cycles.
 Requested convergence on MAX density matrix=1.00D-06.
 Requested convergence on             energy=1.00D-06.
 No special actions if energy rises.
 SCF Done:  E(RB3LYP) =  -362.818729641     A.U. after    9 cycles
            NFock=  9  Conv=0.91D-08     -V/T= 2.0095
 Calling FoFJK, ICntrl=      2127 FMM=F ISym2X=0 I1Cent= 0 IOpClX= 0 NMat=1 NMatS=1 NMatT=0.
 ***** Axes restored to original set *****
 -------------------------------------------------------------------
 Center     Atomic                   Forces (Hartrees/Bohr)
 Number     Number              X              Y              Z
 -------------------------------------------------------------------
      1        7           0.000014018    0.000085484    0.000004024
      2        6          -0.000023104   -0.000277800   -0.000005924
      3        6          -0.000520871    0.000337377   -0.000002549
      4        6           0.000625231    0.000339880    0.000014544
      5        6          -0.000094123   -0.000793716   -0.000014222
      6        6          -0.000577138    0.000504487   -0.000000112
      7        6          -0.000193781    0.000245534   -0.000000149
      8        8           0.000295623   -0.000535368   -0.000002963
      9        1           0.000148348    0.000086270   -0.000037572
     10        1           0.000146799    0.000085104    0.000045813
     11        1           0.000062163    0.000062635    0.000002248
     12        1           0.000068963   -0.000013235    0.000002088
     13        1           0.000053616    0.000018281    0.000000323
     14        1           0.000122905   -0.000105671    0.000000067
     15        1          -0.000128650   -0.000039259   -0.000005617
 -------------------------------------------------------------------
 Cartesian Forces:  Max     0.000793716 RMS     0.000249338

 GradGradGradGradGradGradGradGradGradGradGradGradGradGradGradGradGradGrad
 Berny optimization.
 Using GEDIIS/GDIIS optimizer.
 FormGI is forming the generalized inverse of G from B-inverse, IUseBI=4.
 Internal  Forces:  Max     0.000583280 RMS     0.000163122
 Search for a local minimum.
 Step number   4 out of a maximum of   77
 All quantities printed in internal units (Hartrees-Bohrs-Radians)
 Mixed Optimization -- En-DIIS/RFO-DIIS
 Swapping is turned off.
 Update second derivatives using D2CorX and points    1    2    3    4
 DE= -2.45D-05 DEPred=-2.46D-05 R= 9.98D-01
 TightC=F SS=  1.41D+00  RLast= 1.35D-02 DXNew= 8.4853D-01 4.0382D-02
 Trust test= 9.98D-01 RLast= 1.35D-02 DXMaxT set to 5.05D-01
 ITU=  1  1  1  0
     Eigenvalues ---    0.01011   0.01692   0.01950   0.02001   0.02078
     Eigenvalues ---    0.02086   0.02105   0.02108   0.02116   0.02139
     Eigenvalues ---    0.02141   0.05124   0.13635   0.15955   0.16000
     Eigenvalues ---    0.16000   0.16000   0.16034   0.17853   0.21846
     Eigenvalues ---    0.22443   0.23824   0.24772   0.27373   0.34768
     Eigenvalues ---    0.34976   0.35093   0.35121   0.37795   0.40703
     Eigenvalues ---    0.41604   0.42214   0.44457   0.44492   0.45530
     Eigenvalues ---    0.46132   0.46889   0.52854   0.57874
 En-DIIS/RFO-DIIS/Sim-DIIS IScMMF=       -3 using points:     4    3
 RFO step:  Lambda=-5.02412980D-06.
 DidBck=F Rises=F RFO-DIIS coefs:    1.13312   -0.13312
 Iteration  1 RMS(Cart)=  0.00130208 RMS(Int)=  0.00000061
 Iteration  2 RMS(Cart)=  0.00000087 RMS(Int)=  0.00000016
 Variable       Old X    -DE/DX   Delta X   Delta X   Delta X     New X
                                 (Linear)    (Quad)   (Total)
    R1        2.73363  -0.00028   0.00009  -0.00075  -0.00066   2.73297
    R2        1.92491  -0.00013  -0.00001  -0.00029  -0.00030   1.92461
    R3        1.92492  -0.00013  -0.00001  -0.00029  -0.00030   1.92462
    R4        2.63739  -0.00028  -0.00025  -0.00065  -0.00090   2.63649
    R5        2.66135  -0.00036   0.00097  -0.00090   0.00007   2.66142
    R6        2.63727   0.00042   0.00015   0.00090   0.00105   2.63833
    R7        2.05685  -0.00009   0.00002  -0.00024  -0.00022   2.05663
    R8        2.64407  -0.00051  -0.00005  -0.00108  -0.00114   2.64293
    R9        2.05217   0.00004  -0.00002   0.00011   0.00010   2.05227
   R10        2.63213   0.00042   0.00002   0.00091   0.00094   2.63307
   R11        2.05385   0.00005   0.00003   0.00014   0.00017   2.05402
   R12        2.64372  -0.00022  -0.00022  -0.00050  -0.00071   2.64301
   R13        2.05140  -0.00003   0.00014  -0.00010   0.00004   2.05144
   R14        2.56171  -0.00058  -0.00034  -0.00102  -0.00135   2.56036
   R15        1.85883   0.00013   0.00046   0.00031   0.00077   1.85960
    A1        1.94539  -0.00011   0.00028  -0.00052  -0.00024   1.94515
    A2        1.94539  -0.00011   0.00028  -0.00052  -0.00024   1.94515
    A3        1.86656   0.00013   0.00012   0.00094   0.00106   1.86762
    A4        2.18822   0.00032  -0.00038   0.00143   0.00105   2.18927
    A5        2.00721  -0.00038   0.00014  -0.00168  -0.00154   2.00567
    A6        2.08776   0.00006   0.00024   0.00025   0.00049   2.08825
    A7        2.10196   0.00002  -0.00021   0.00010  -0.00011   2.10186
    A8        2.08024   0.00001   0.00003   0.00004   0.00007   2.08031
    A9        2.10098  -0.00003   0.00017  -0.00014   0.00004   2.10102
   A10        2.08541  -0.00009   0.00003  -0.00037  -0.00035   2.08507
   A11        2.09632   0.00010  -0.00003   0.00050   0.00047   2.09679
   A12        2.10145  -0.00001   0.00001  -0.00013  -0.00012   2.10133
   A13        2.10937  -0.00002   0.00024   0.00006   0.00030   2.10967
   A14        2.09101   0.00003   0.00010   0.00010   0.00019   2.09120
   A15        2.08281  -0.00001  -0.00034  -0.00016  -0.00050   2.08231
   A16        2.08504  -0.00003  -0.00002  -0.00005  -0.00007   2.08497
   A17        2.12324  -0.00015  -0.00036  -0.00097  -0.00134   2.12190
   A18        2.07491   0.00018   0.00038   0.00102   0.00140   2.07631
   A19        2.09683   0.00006  -0.00028   0.00001  -0.00027   2.09656
   A20        2.08405  -0.00020   0.00010  -0.00104  -0.00093   2.08312
   A21        2.10230   0.00014   0.00017   0.00103   0.00121   2.10351
   A22        1.81310  -0.00001  -0.00066   0.00032  -0.00035   1.81276
    D1        1.04154   0.00001   0.00027   0.00020   0.00048   1.04202
    D2       -2.10003   0.00001   0.00027   0.00023   0.00050  -2.09953
[...]
 ! D25   D(5,6,7,2)             -0.0005         -DE/DX =    0.0                 !
 ! D26   D(5,6,7,8)            179.9996         -DE/DX =    0.0                 !
 ! D27   D(14,6,7,2)          -180.0            -DE/DX =    0.0                 !
 ! D28   D(14,6,7,8)             0.0001         -DE/DX =    0.0                 !
 ! D29   D(2,7,8,15)             0.007          -DE/DX =    0.0                 !
 ! D30   D(6,7,8,15)          -179.993          -DE/DX =    0.0                 !
 --------------------------------------------------------------------------------
 GradGradGradGradGradGradGradGradGradGradGradGradGradGradGradGradGradGrad


 ----------------------------------------------------------------------

 Electric dipole moment (input orientation):
 (Debye = 10**-18 statcoulomb cm , SI units = C m)
                  (au)            (Debye)         (10**-30 SI)
   Tot        0.106687D+01      0.271172D+01      0.904533D+01
   x         -0.619750D+00     -0.157525D+01     -0.525446D+01
   y         -0.867955D+00     -0.220612D+01     -0.735883D+01
   z         -0.279865D-01     -0.711346D-01     -0.237279D+00

 Dipole polarizability, Alpha (input orientation).
 (esu units = cm**3 , SI units = C**2 m**2 J**-1)
 Alpha(0;0):
               (au)            (10**-24 esu)      (10**-40 SI)
   iso        0.671553D+02      0.995139D+01      0.110724D+02
   aniso      0.566917D+02      0.840084D+01      0.934719D+01
   xx         0.896292D+02      0.132817D+02      0.147779D+02
   yx        -0.242707D+01     -0.359654D+00     -0.400169D+00
   yy         0.820835D+02      0.121635D+02      0.135337D+02
   zx         0.105920D+01      0.156957D+00      0.174638D+00
   zy         0.939697D+00      0.139249D+00      0.154935D+00
   zz         0.297532D+02      0.440897D+01      0.490564D+01

 ----------------------------------------------------------------------

 Dipole orientation:
     7         -2.83077918          2.00471990          2.34860140
     6         -0.88011164          0.62334092          1.02353163
     6          1.06126504         -0.75069160          2.16113635
     6          2.84608516         -2.01457191          0.68540073
     6          2.67480467         -1.89404937         -1.94921447
     6          0.74855156         -0.53071430         -3.11709020
     6         -1.03521027          0.73245441         -1.63112356
     8         -2.92510966          2.07009407         -2.72401940
     1         -2.08170187          3.36979228          3.47979571
     1         -3.87033613          0.84474180          3.47906070
     1          1.16783741         -0.82558351          4.21363558
     1          4.35359820         -3.08152587          1.58028965
     1          4.05855208         -2.87394300         -3.10854893
     1          0.59522100         -0.42269264         -5.15993599
     1         -3.88266949          2.74862637         -1.28152064

 Electric dipole moment (dipole orientation):
 (Debye = 10**-18 statcoulomb cm , SI units = C m)
                  (au)            (Debye)         (10**-30 SI)
   Tot        0.106687D+01      0.271172D+01      0.904533D+01
   x          0.000000D+00      0.000000D+00      0.000000D+00
   y          0.000000D+00      0.000000D+00      0.000000D+00
   z          0.106687D+01      0.271172D+01      0.904533D+01

 Dipole polarizability, Alpha (dipole orientation).
 (esu units = cm**3 , SI units = C**2 m**2 J**-1)
 Alpha(0;0):
               (au)            (10**-24 esu)      (10**-40 SI)
   iso        0.671553D+02      0.995139D+01      0.110724D+02
   aniso      0.566917D+02      0.840084D+01      0.934719D+01
   xx         0.694606D+02      0.102930D+02      0.114525D+02
   yx        -0.281354D+02     -0.416923D+01     -0.463889D+01
   yy         0.496332D+02      0.735488D+01      0.818341D+01
   zx        -0.226859D+01     -0.336170D+00     -0.374040D+00
   zy         0.162050D+01      0.240134D+00      0.267185D+00
   zz         0.823721D+02      0.122063D+02      0.135813D+02

 ----------------------------------------------------------------------
 1\1\GINC-MACMINIM12022MAC-MINI-2\Freq\RB3LYP\6-31G(d)\C6H7N1O1\MACMINI
 _M1_2022\27-May-2024\0\\#N Geom=AllCheck Guess=TCheck SCRF=Check GenCh
 k RB3LYP/6-31G(d) Freq\\Smiles:Nc1ccccc1O\\0,1\N,-2.2156937076,0.05570
 47429,-0.0397288738\C,-0.7790621914,-0.10895456,-0.0163991062\C,-0.104
 5576367,-1.3301938843,-0.0269482599\C,1.2908627876,-1.3674804212,-0.00
 19240025\C,2.0105637363,-0.168829349,0.0338831377\C,1.3533415414,1.059
 7447304,0.0448961097\C,-0.0446751978,1.0922342813,0.0197487999\O,-0.70
 57760823,2.2748368056,0.0298338995\H,-2.6549765421,-0.392290141,0.7625
 154886\H,-2.6247642608,-0.3606047502,-0.8743664197\H,-0.6794106725,-2.
 2538840867,-0.0549215227\H,1.8110848454,-2.3207521172,-0.0102727516\H,
 3.0970983329,-0.19119042,0.0534850217\H,1.9005497925,1.9969030349,0.07
 26246364\H,-1.654584745,2.0147571345,0.0075718428\\Version=EM64M-G16Re
 vA.03\State=1-A\HF=-362.8187323\RMSD=7.301e-09\RMSF=7.618e-05\ZeroPoin
 t=0.1219875\Thermal=0.1288801\Dipole=-0.61975,-0.8679553,-0.0279865\Di
 poleDeriv=-0.6577869,0.079864,-0.0076413,0.0984492,-0.442367,-0.003643
 6,-0.0073027,-0.003951,-0.1594138,0.5780407,-0.1322871,0.0096563,0.376
 2703,-0.1408246,0.0058447,0.0193226,-0.0035286,-0.0804655,0.1133928,0.
 0940581,0.0057285,-0.0595061,0.0874366,0.0024401,0.0027646,0.0052656,-
 0.100658,-0.2491033,-0.1054545,-0.0036504,-0.1273158,-0.0500842,-0.000
 3103,-0.0040857,0.0001149,-0.1589742,0.1588054,-0.0515567,0.0038858,0.
 138585,0.1702562,0.0077394,0.0074709,0.0042163,-0.1048326,-0.0949769,0
 .3432966,0.0076635,0.0224303,-0.0573119,0.0023435,0.0016233,0.0082377,
 -0.1595986,0.3157291,-0.5616598,-0.0075762,-0.6732314,0.9814959,0.0032
 242,-0.0096075,0.0052628,0.1525055,-0.6468643,0.4618676,0.0038299,0.54
 71496,-1.1699079,-0.0047614,0.0054335,-0.0062876,-0.3830201,0.1075393,
 -0.0191321,-0.0071026,-0.12687,0.166735,0.1169397,-0.0003892,0.0510226
 ,0.121116,0.1073191,-0.0175515,0.0059773,-0.1225207,0.1732739,-0.11947
 9,-0.0048024,-0.0496808,0.1147177,-0.0044356,-0.1048845,-0.0039317,-0.
 086023,-0.0584714,-0.0046073,-0.0035673,-0.0049519,0.1018191,0.0040176
 ,0.072194,-0.0007751,0.0798641,-0.0847078,-0.0023749,-0.0006222,-0.002
 5127,0.1197327,-0.1278374,0.004217,-0.0043163,0.002608,0.0630425,-0.00
 08495,-0.0043459,-0.0008142,0.1106525,0.0307332,-0.0556397,-0.0027719,
 -0.0651312,-0.0486669,-0.0044575,-0.0029575,-0.0042738,0.1241908,0.365
 4272,-0.0073314,0.0010244,-0.0047582,0.4101017,0.001952,0.0010653,0.00
 18806,0.3022285\Polar=89.6291708,-2.4270671,82.0834512,1.0591979,0.939
 6972,29.7532263\Quadrupole=4.9893648,-2.3284441,-2.6609207,2.1637236,0
 .1830985,0.045655\PG=C01 [X(C6H7N1O1)]\NImag=0\\0.52378361,0.14150348,
 0.26185836,0.00024726,-0.00508023,0.65774590,-0.23598760,-0.00806887,-
 0.00298057,0.64834313,0.03618182,-0.07224663,0.00088628,-0.02228861,0.
 69443176,-0.00213315,0.00006654,-0.08263730,0.00855039,0.00959238,0.16
 217010,-0.03283853,0.03459199,0.00002573,-0.16504245,0.04764303,-0.001
 13262,0.69813136,0.00330774,0.00391557,0.00011237,0.11837517,-0.294560
 86,-0.00232247,0.03116869,0.71476132,-0.00056234,0.00069083,0.00112847
 ,0.00019844,-0.00362473,-0.05510966,0.01113527,0.01165198,0.12637669,0
 .00457238,0.00030854,-0.00003539,-0.02526007,0.07992903,0.00098057,-0.
 34065083,-0.02654603,-0.00575551,0.68449752,0.00503209,-0.00511214,-0.
 00013107,0.02747538,0.03002168,0.00101211,0.03877690,-0.12649016,-0.00
 062157,-0.03540566,0.72429266,0.00005377,-0.00021433,0.00670834,-0.000
 00753,0.00197675,0.00326068,-0.00452548,-0.00182397,-0.05566468,0.0097
 8210,0.01076156,0.11792717,-0.00062429,-0.00019567,-0.00000410,-0.0016
 3038,-0.00663339,-0.00009159,-0.03178904,-0.02522076,-0.00117333,-0.18
 183462,-0.12407971,-0.00463114,0.73991423,-0.00205022,-0.00083773,-0.0
 0003843,0.00032373,-0.06532410,-0.00116046,-0.07493195,0.03310123,-0.0
 0087200,-0.05954890,-0.27956870,-0.00527962,-0.00577134,0.67731548,-0.
 00003710,-0.00000661,-0.00066544,0.00003832,-0.00128712,-0.00344710,-0
 .00210812,0.00004326,0.00604998,-0.00341714,-0.00646963,-0.05733766,0.
 01113356,0.01019604,0.13016350,-0.00026703,-0.00170926,-0.00015075,-0.
 02260805,-0.06379332,-0.00169960,-0.04612612,0.02405395,-0.00033038,0.
 06035345,0.02189923,0.00140384,-0.17853453,0.06188597,-0.00114270,0.68
 850941,-0.00384621,-0.00180756,-0.00022424,-0.01989513,0.03721500,0.00
 025167,0.02815551,-0.01771881,0.00025298,-0.02452117,-0.05687389,-0.00
 164621,0.12439535,-0.30428204,-0.00243101,0.01836454,0.75028377,-0.000
 19413,-0.00018750,0.00637527,-0.00087338,-0.00055851,0.00437407,-0.000
 25402,0.00017722,-0.00357407,0.00053001,-0.00079026,0.00655105,0.00003
 361,-0.00358337,-0.05338943,0.01082628,0.01220759,0.12021580,-0.036246
 17,-0.02130383,-0.00119274,-0.16655537,-0.03885133,-0.00255138,0.06984
 277,-0.02782609,0.00073787,-0.05628378,-0.03318532,-0.00162350,-0.0218
 1478,0.08435841,0.00119865,-0.32402512,-0.04971033,-0.00573151,0.75313
 183,-0.00680407,-0.00435629,-0.00033173,-0.11941419,-0.23787654,-0.005
 40059,0.02451498,-0.05822999,-0.00066893,-0.03294085,-0.01364166,-0.00
 082406,0.03505305,0.03398647,0.00129897,0.01960994,-0.12982360,-0.0008
 8166,-0.02461350,0.68465822,-0.00091603,-0.00060103,0.00662881,-0.0040
 7002,-0.00391963,-0.06784282,0.00172432,-0.00163334,0.00126782,-0.0016
 1783,-0.00082730,-0.00216076,0.00027187,0.00220635,-0.00065825,-0.0044
 2673,-0.00216006,-0.06393235,0.01053975,0.00950676,0.15596282,-0.00580
 873,-0.01512572,-0.00040786,0.00763271,-0.00499597,-0.00014694,-0.0066
 8693,-0.00049225,-0.00026303,0.00433363,0.00669523,0.00022714,-0.00338
 074,-0.01207675,-0.00038727,-0.03354134,0.05451885,0.00029817,-0.15438
 024,0.11128215,0.00012407,0.57766704,-0.00067001,-0.00115117,-0.000056
 23,0.02039148,-0.06114113,-0.00097475,-0.00845045,0.00292602,-0.000235
 48,0.00506121,-0.00314448,0.00005588,-0.00508644,-0.00091454,-0.000211
 61,0.01525979,0.00044187,0.00017875,0.06381401,-0.27988848,-0.00319668
 ,-0.00930837,0.42616164,-0.00014240,-0.00032437,0.00131385,0.00032888,
 -0.00144291,0.01055696,-0.00041434,-0.00008860,0.00713436,0.00019615,0
 .00008621,-0.00113303,-0.00025534,-0.00034034,0.00530707,-0.00044066,0
 .00090027,0.00594317,-0.00076180,-0.00232763,-0.04744543,0.00969391,0.
 00709669,0.03953803,-0.11193040,-0.07079174,0.11046496,-0.02303005,-0.
 01859927,0.02841146,0.00225470,-0.00133693,-0.00032725,-0.00105977,-0.
 00055016,-0.00153513,-0.00000060,0.00063870,0.00024736,0.00017726,-0.0
 0093901,-0.00143783,-0.00454829,0.00336276,0.00094924,0.00162867,-0.00
 001926,0.00085191,0.12922734,-0.09328140,-0.09870076,0.16140538,0.0070
 2385,-0.00155009,-0.00827066,0.00181980,0.00108068,-0.00005598,-0.0005
 5527,-0.00023988,0.00085865,0.00043052,0.00031763,-0.00030940,-0.00018
 584,-0.00084583,0.00025039,-0.00131630,-0.00134424,0.00005485,-0.00298
 276,-0.00064482,-0.00205456,0.08051586,0.09499922,0.11261134,0.1185427
 3,-0.28253251,-0.00072082,-0.00074757,0.00651952,-0.00150537,0.0003540
 6,0.00054473,0.00039426,0.00015863,0.00039337,-0.00024502,-0.00031666,
 -0.00002789,-0.00023248,-0.00004927,-0.00015730,-0.00086782,-0.0005069
 7,-0.00043373,-0.00072092,-0.00070145,-0.00059897,-0.12455831,-0.13715
 874,0.30306374,-0.10382127,-0.06231180,-0.10624186,-0.02196544,-0.0174
 6851,-0.03016451,0.00218112,-0.00133680,0.00033610,-0.00109962,-0.0005
 9950,0.00146036,-0.00000135,0.00063518,-0.00022293,0.00011589,-0.00099
 151,0.00141226,-0.00453578,0.00337792,-0.00097250,0.00163155,-0.000016
 80,-0.00077213,0.00817638,0.00796796,0.01527955,0.12016785,-0.08310742
 ,-0.08803537,-0.15696708,0.00671341,-0.00187885,0.00822181,0.00175831,
 0.00109032,0.00014047,-0.00050735,-0.00020279,-0.00090330,0.00040698,0
 .00029565,0.00033687,-0.00018065,-0.00083700,-0.00028312,-0.00135215,-
 0.00135588,-0.00013686,-0.00307427,-0.00074825,0.00193976,0.00782924,0
 .00491672,0.01970529,0.07080553,0.08459568,-0.10921543,-0.11330458,-0.
 30128211,-0.00007723,-0.00022051,0.00578148,0.00163319,-0.00038451,0.0
 0060505,-0.00046842,-0.00020224,0.00039220,0.00026231,0.00035101,-0.00
 000246,0.00023339,-0.00001351,-0.00010604,0.00066725,0.00059498,-0.000
 42428,0.00068098,0.00069344,-0.00050096,-0.01366755,-0.01817129,-0.027
 17688,0.12053483,0.13130979,0.32250847,0.00211191,-0.00097625,0.000088
 20,0.00959239,0.01353556,0.00036649,-0.13457155,-0.12187421,-0.0041435
 7,-0.01056709,-0.02930600,-0.00078455,-0.00581518,0.00196780,-0.000193
 15,-0.00045160,0.00092219,0.00001707,-0.00156870,0.00259196,-0.0001025
 3,0.00039512,0.00088061,0.00002572,0.00007026,0.00007569,0.00031154,0.
 00011941,0.00008191,-0.00029258,0.13984028,-0.00051828,0.00348693,0.00
 012590,-0.01909629,-0.02037172,-0.00080135,-0.12174134,-0.25845655,-0.
 00646446,0.00194940,0.00446630,0.00008097,0.00051029,0.00154783,-0.000
 08698,0.00084387,0.00003734,0.00002451,0.00437677,-0.00175102,-0.00007
 709,-0.00020180,-0.00185291,-0.00003676,0.00080430,-0.00054515,-0.0003
 1218,0.00082992,-0.00056314,0.00033308,0.13323811,0.27325277,0.0000961
 6,0.00011570,-0.00368434,-0.00024502,-0.00020045,0.00351018,-0.0041421
 4,-0.00646576,-0.03435353,-0.00019640,-0.00049546,0.00206841,-0.000220
 64,-0.00006030,0.00666714,0.00001559,0.00002606,-0.00043795,-0.0000689
 7,-0.00011018,0.00663935,0.00000518,-0.00001684,-0.00009956,0.00104954
 ,-0.00015452,-0.00031255,-0.00100335,0.00014999,-0.00034381,0.00463312
 ,0.00713688,0.02468689,-0.00125913,0.00191392,0.00000183,-0.00431394,-
 0.00270366,-0.00025626,-0.01099930,0.03025334,0.00036354,-0.12394726,0
 .11800772,0.00048395,0.01211232,-0.01600870,-0.00008482,-0.00138339,-0
 .00280369,-0.00019695,-0.00112313,-0.00073764,-0.00002013,0.00042348,0
 .00021172,0.00002158,0.00004831,-0.00002748,-0.00009881,0.00003939,-0.
 00002612,0.00009858,0.00111494,-0.00037734,0.00008405,0.12804682,0.000
 04505,0.00007046,-0.00000915,-0.00056807,0.00150234,-0.00011045,-0.001
 85974,0.00311880,0.00002115,0.11797547,-0.27567720,-0.00245337,0.01577
 603,-0.01920049,-0.00007754,-0.00441919,-0.00256717,-0.00025100,-0.001
 08412,0.00032520,0.00000098,0.00029644,-0.00001200,0.00001523,0.000012
 59,0.00000968,0.00003479,0.00000880,0.00001595,-0.00003461,0.00043975,
 0.00081778,0.00009547,-0.12714992,0.29160190,-0.00003391,0.00002525,0.
 00059798,-0.00021556,-0.00015026,0.00681216,-0.00024133,0.00061328,0.0
 0018155,0.00048356,-0.00245298,-0.02975833,0.00051307,-0.00066300,0.00
 037390,-0.00022729,-0.00022126,0.00643428,-0.00002623,0.00000742,-0.00
 078740,0.00002306,0.00001365,-0.00053168,-0.00013432,0.00013121,0.0000
 1804,0.00013580,-0.00013234,0.00002038,0.00009941,0.00008041,-0.003823
 49,-0.00046682,0.00269985,0.02359856,-0.00020499,0.00013542,0.00001179
 ,0.00086139,0.00006986,0.00002452,0.00041054,-0.00345942,-0.00017936,-
 0.01238125,0.00301328,-0.00021341,-0.33795200,0.00572647,-0.00546374,-
 0.01134052,-0.00179363,-0.00028646,0.00141623,0.00229804,-0.00007356,-
 0.00113736,0.00011798,-0.00002039,0.00001271,-0.00007053,-0.00003366,0
 .00001813,-0.00007390,0.00003432,-0.00077160,0.00015649,-0.00001657,0.
 00090018,-0.00025975,0.00008041,0.35918957,-0.00003129,0.00042784,0.00
 002068,0.00021354,-0.00141969,-0.00001539,-0.00218815,-0.00458203,-0.0
 0025090,-0.02827948,0.00582717,-0.00045430,0.00555358,-0.06075221,-0.0
 0037053,0.02931792,0.00364595,0.00056436,0.00123222,-0.00473254,-0.000
 21235,0.00175069,0.00042806,0.00003848,0.00005213,-0.00002451,-0.00002
 367,0.00005797,-0.00002769,0.00002766,-0.00155984,0.00011489,-0.000032
 00,0.00052264,0.00100860,0.00009873,-0.00625837,0.05945598,0.00000855,
 0.00002342,-0.00070030,0.00002726,-0.00001794,-0.00039470,-0.00015589,
 -0.00027440,0.00660558,-0.00080177,0.00012267,0.00226264,-0.00546717,-
 0.00036775,-0.03572124,0.00029882,-0.00000873,0.00237717,-0.00009316,-
 0.00019262,0.00775031,0.00001039,0.00000822,0.00009233,0.00018525,-0.0
 0005913,-0.00007802,-0.00017979,0.00005877,-0.00008025,-0.00004886,-0.
 00000041,0.00028678,0.00009509,0.00008435,-0.00372573,0.00603136,0.000
 52341,0.02562414,-0.00132784,-0.00071716,-0.00002875,-0.00392701,0.002
 61196,-0.00013176,-0.00112945,0.00097347,0.00000417,-0.00088804,0.0030
 6509,-0.00008047,0.01271990,0.01428733,0.00048180,-0.13409538,-0.12326
 765,-0.00418310,-0.01153546,-0.03139736,-0.00088910,0.00312999,0.00030
 156,0.00012925,-0.00032033,-0.00020411,-0.00010073,-0.00032311,-0.0002
 0130,0.00007909,0.00011241,-0.00012178,0.00001547,0.00049254,0.0008171
 9,0.00001261,0.00091560,-0.00054855,0.00008220,0.13625569,0.00026667,0
 .00027003,0.00001872,0.00068991,0.00075569,-0.00008411,0.00070702,0.00
 036943,0.00002668,0.00422669,-0.00257446,-0.00009498,-0.01618770,-0.01
 824617,-0.00066378,-0.12495043,-0.26813434,-0.00672874,0.00205010,0.00
 285169,0.00000475,-0.00061799,0.00109032,0.00007669,0.00002112,0.00002
 735,-0.00004637,0.00001945,0.00003171,0.00004644,-0.00015168,-0.000023
 68,0.00001277,-0.00082030,-0.00102115,-0.00004638,0.00017900,0.0010876
 8,0.00010100,0.13469404,0.28354137,-0.00001126,0.00000082,-0.00047182,
 -0.00016754,-0.00004813,0.00589568,-0.00000069,0.00003172,-0.00035703,
 -0.00005867,-0.00011665,0.00660170,-0.00009224,-0.00010155,0.00116680,
 -0.00421405,-0.00669806,-0.03325548,-0.00025930,-0.00061208,0.00459580
 ,0.00011190,0.00009360,-0.00358171,-0.00000210,0.00016258,0.00004963,-
 0.00001095,-0.00017098,0.00004837,0.00001490,0.00001328,-0.00084960,-0
 .00001821,-0.00001625,0.00064129,0.00009583,0.00008756,-0.00409862,0.0
 0460678,0.00737051,0.02412490,-0.00015192,0.00274695,0.00020225,0.0038
 9075,-0.00463719,-0.00002562,-0.00298627,-0.00003987,-0.00004062,0.000
 21535,-0.00083854,-0.00000994,-0.00136894,0.00056428,-0.00004272,0.003
 21708,0.00141191,0.00003998,-0.04177401,0.01381681,-0.00052081,-0.3919
 0686,-0.08248704,-0.00844033,-0.00070619,0.00079000,0.00048724,-0.0007
 0315,0.00092778,-0.00050272,0.00038900,-0.00065232,-0.00000600,-0.0001
 5182,-0.00003052,-0.00000245,0.00006338,0.00016499,0.00000773,-0.00007
 951,-0.00012588,0.00000559,0.43205311,0.00397205,0.00221845,0.00026883
 ,0.00812470,-0.00755687,-0.00000431,0.00003541,-0.00032498,0.00000996,
 -0.00114563,-0.00108247,-0.00003967,0.00104922,0.00256171,0.00003908,0
 .00400351,-0.00873369,-0.00013866,0.04341147,0.01117866,0.00099066,-0.
 12566748,-0.08155013,-0.00353816,-0.00100032,0.00254400,0.00106739,-0.
 00097780,0.00270293,-0.00102515,0.00013440,-0.00015969,-0.00000138,-0.
 00025449,0.00000729,-0.00000357,0.00021905,-0.00045749,-0.00000086,-0.
 00029272,-0.00002546,0.00000363,0.06838863,0.07867774,0.00022868,0.000
 25336,-0.00852480,0.00021440,-0.00023765,0.00055075,-0.00003850,0.0000
 0917,-0.00083525,-0.00001550,-0.00003404,-0.00011110,-0.00003384,0.000
 03006,0.00152107,0.00008673,-0.00018624,0.00258182,0.00003288,0.000448
 33,0.00084010,-0.00924880,-0.00274720,-0.01599443,-0.00049723,0.003371
 22,0.00072880,0.00040911,-0.00326905,0.00056082,0.00000879,-0.00001580
 ,0.00004607,-0.00000662,0.00000056,-0.00005152,0.00000893,-0.00000173,
 -0.00020010,0.00000254,0.00000680,-0.00050991,0.00884843,0.00237220,0.
 01939768\\0.00008676,-0.00001227,0.00000357,-0.00008160,0.00007761,-0.
 00000123,0.00013668,-0.00010590,-0.00000064,-0.00016768,-0.00009974,-0
 .00000422,-0.00000556,0.00026157,0.00000424,0.00010210,-0.00026482,-0.
 00000238,0.00003237,0.00003639,0.00000245,0.00003454,0.00006321,0.0000
 0223,-0.00000473,-0.00000186,0.00000631,-0.00000427,-0.00000028,-0.000
 00650,-0.00003757,0.00001819,-0.00000014,0.00001084,0.00000920,0.00000
 019,0.00000156,-0.00000876,-0.00000010,-0.00000789,0.00006089,0.000000
 90,-0.00009554,-0.00003343,-0.00000470\\\@


 HAPPINESS IS NOT HAVING WHAT YOU WANT --
 HAPPINESS IS WANTING WHAT YOU HAVE!

              -- FROM MRS. SEVERN'S DESK
 Job cpu time:       0 days  0 hours  0 minutes 34.1 seconds.
 Elapsed time:       0 days  0 hours  0 minutes 35.1 seconds.
 File lengths (MBytes):  RWF=     37 Int=      0 D2E=      0 Chk=      3 Scr=      1
 Normal termination of Gaussian 16 at Mon May 27 12:01:14 2024.
