 Entering Gaussian System, Link 0=g16
 Input=/Users/macmini_m1_2022/Poclab/ichizawa/Gaussian/20240527_1_500/3_#_opt_pm6_MMFF.gjf
 Output=/Users/macmini_m1_2022/Poclab/ichizawa/Gaussian/20240527_1_500/3_#_opt_pm6_MMFF.log
 Initial command:
 /Applications/g16/l1.exe "/Users/macmini_m1_2022/Poclab/ichizawa/Gaussian/20240527_1_500/Gau-63124.inp" -scrdir="/Users/macmini_m1_2022/Poclab/ichizawa/Gaussian/20240527_1_500/"
 Entering Link 1 = /Applications/g16/l1.exe PID=     63125.
  
 Copyright (c) 1988,1990,1992,1993,1995,1998,2003,2009,2016,
            Gaussian, Inc.  All Rights Reserved.
  
 This is part of the Gaussian(R) 16 program.  It is based on
 the Gaussian(R) 09 system (copyright 2009, Gaussian, Inc.),
 the Gaussian(R) 03 system (copyright 2003, Gaussian, Inc.),
 the Gaussian(R) 98 system (copyright 1998, Gaussian, Inc.),
 the Gaussian(R) 94 system (copyright 1995, Gaussian, Inc.),
 the Gaussian 92(TM) system (copyright 1992, Gaussian, Inc.),
 the Gaussian 90(TM) system (copyright 1990, Gaussian, Inc.),
 the Gaussian 88(TM) system (copyright 1988, Gaussian, Inc.),
 the Gaussian 86(TM) system (copyright 1986, Carnegie Mellon
 University), and the Gaussian 82(TM) system (copyright 1983,
 Carnegie Mellon University). Gaussian is a federally registered
 trademark of Gaussian, Inc.
  
 This software contains proprietary and confidential information,
 including trade secrets, belonging to Gaussian, Inc.
  
 This software is provided under written license and may be
 used, copied, transmitted, or stored only in accord with that
 written license.
  
 The following legend is applicable only to US Government
 contracts under FAR:
  
                    RESTRICTED RIGHTS LEGEND
  
 Use, reproduction and disclosure by the US Government is
 subject to restrictions as set forth in subparagraphs (a)
 and (c) of the Commercial Computer Software - Restricted
 Rights clause in FAR 52.227-19.
  
 Gaussian, Inc.
 340 Quinnipiac St., Bldg. 40, Wallingford CT 06492
  
  
 ---------------------------------------------------------------
 Warning -- This program may not be used in any manner that
 competes with the business of Gaussian, Inc. or will provide
 assistance to any competitor of Gaussian, Inc.  The licensee
 of this program is prohibited from giving any competitor of
 Gaussian, Inc. access to this program.  By using this program,
 the user acknowledges that Gaussian, Inc. is engaged in the
 business of creating and licensing software in the field of
 computational chemistry and represents and warrants to the
 licensee that it is not a competitor of Gaussian, Inc. and that
 it will not use this program in any manner prohibited above.
 ---------------------------------------------------------------
  

 Cite this work as:
 Gaussian 16, Revision A.03,
 M. J. Frisch, G. W. Trucks, H. B. Schlegel, G. E. Scuseria, 
 M. A. Robb, J. R. Cheeseman, G. Scalmani, V. Barone, 
 G. A. Petersson, H. Nakatsuji, X. Li, M. Caricato, A. V. Marenich, 
 J. Bloino, B. G. Janesko, R. Gomperts, B. Mennucci, H. P. Hratchian, 
 J. V. Ortiz, A. F. Izmaylov, J. L. Sonnenberg, D. Williams-Young, 
 F. Ding, F. Lipparini, F. Egidi, J. Goings, B. Peng, A. Petrone, 
 T. Henderson, D. Ranasinghe, V. G. Zakrzewski, J. Gao, N. Rega, 
 G. Zheng, W. Liang, M. Hada, M. Ehara, K. Toyota, R. Fukuda, 
 J. Hasegawa, M. Ishida, T. Nakajima, Y. Honda, O. Kitao, H. Nakai, 
 T. Vreven, K. Throssell, J. A. Montgomery, Jr., J. E. Peralta, 
 F. Ogliaro, M. J. Bearpark, J. J. Heyd, E. N. Brothers, K. N. Kudin, 
 V. N. Staroverov, T. A. Keith, R. Kobayashi, J. Normand, 
 K. Raghavachari, A. P. Rendell, J. C. Burant, S. S. Iyengar, 
 J. Tomasi, M. Cossi, J. M. Millam, M. Klene, C. Adamo, R. Cammi, 
 J. W. Ochterski, R. L. Martin, K. Morokuma, O. Farkas, 
 J. B. Foresman, and D. J. Fox, Gaussian, Inc., Wallingford CT, 2016.
 
 ******************************************
 Gaussian 16:  EM64M-G16RevA.03 25-Dec-2016
                27-May-2024 
 ******************************************
 %Mem=16GB
 %Nprocshared=10
 Will use up to   10 processors via shared memory.
 %chk=3_#_opt_pm6_MMFF.chk
 ---------
 # opt pm6
 ---------
 1/18=20,19=15,26=1,38=1/1,3;
 2/9=110,12=2,17=6,18=5,40=1/2;
 3/5=2,25=1,41=3900000,71=1/1,2,3;
 4/35=1/1;
 5/5=2,35=1,38=5/2;
 6/7=2,8=2,9=2,10=2,28=1/1;
 7//1,2,3,16;
 1/18=20,19=15,26=1/3(2);
 2/9=110/2;
 99//99;
 2/9=110/2;
 3/5=2,25=1,41=3900000,71=1,135=20/1,2,3;
 4/5=5,16=3,35=1/1;
 5/5=2,35=1,38=5/2;
 7//1,2,3,16;
 1/18=20,19=15,26=1/3(-5);
 2/9=110/2;
 6/7=2,8=2,9=2,10=2,19=2,28=1/1;
 99/9=1/99;
 -----------------
 Smiles:Cc1ccccc1O
 -----------------
 Symbolic Z-matrix:
 Charge =  0 Multiplicity = 1
 C                     2.16858   0.47796  -0.05175 
 C                     0.67968   0.29052  -0.03585 
 C                    -0.17652   1.38851  -0.1949 
 C                    -1.56221   1.21565  -0.18032 
 C                    -2.10608  -0.05594  -0.00669 
 C                    -1.26601  -1.15764   0.15277 
 C                     0.11705  -0.97824   0.13726 
 O                     0.95177  -2.04947   0.29243 
 H                     2.60223   0.15109   0.89886 
 H                     2.61441  -0.09576  -0.87068 
 H                     2.43923   1.52918  -0.19652 
 H                     0.23128   2.38744  -0.33144 
 H                    -2.2165    2.07473  -0.30466 
 H                    -3.18479  -0.18763   0.00426 
 H                    -1.70424  -2.14136   0.28697 
 H                     0.41212  -2.84904   0.40024 
 

 GradGradGradGradGradGradGradGradGradGradGradGradGradGradGradGradGradGrad
 Berny optimization.
 Initialization pass.
                           ----------------------------
                           !    Initial Parameters    !
                           ! (Angstroms and Degrees)  !
 --------------------------                            --------------------------
 ! Name  Definition              Value          Derivative Info.                !
 --------------------------------------------------------------------------------
 ! R1    R(1,2)                  1.5007         estimate D2E/DX2                !
 ! R2    R(1,9)                  1.0948         estimate D2E/DX2                !
 ! R3    R(1,10)                 1.0948         estimate D2E/DX2                !
 ! R4    R(1,11)                 1.0951         estimate D2E/DX2                !
 ! R5    R(2,3)                  1.4014         estimate D2E/DX2                !
 ! R6    R(2,7)                  1.3987         estimate D2E/DX2                !
 ! R7    R(3,4)                  1.3965         estimate D2E/DX2                !
 ! R8    R(3,12)                 1.0876         estimate D2E/DX2                !
 ! R9    R(4,5)                  1.3939         estimate D2E/DX2                !
 ! R10   R(4,13)                 1.087          estimate D2E/DX2                !
 ! R11   R(5,6)                  1.3946         estimate D2E/DX2                !
 ! R12   R(5,14)                 1.0868         estimate D2E/DX2                !
 ! R13   R(6,7)                  1.3947         estimate D2E/DX2                !
 ! R14   R(6,15)                 1.0852         estimate D2E/DX2                !
 ! R15   R(7,8)                  1.3669         estimate D2E/DX2                !
 ! R16   R(8,16)                 0.9706         estimate D2E/DX2                !
 ! A1    A(2,1,9)              110.273          estimate D2E/DX2                !
 ! A2    A(2,1,10)             110.2729         estimate D2E/DX2                !
 ! A3    A(2,1,11)             111.4993         estimate D2E/DX2                !
 ! A4    A(9,1,10)             109.3744         estimate D2E/DX2                !
 ! A5    A(9,1,11)             107.6679         estimate D2E/DX2                !
 ! A6    A(10,1,11)            107.6682         estimate D2E/DX2                !
 ! A7    A(1,2,3)              120.4691         estimate D2E/DX2                !
 ! A8    A(1,2,7)              120.9105         estimate D2E/DX2                !
 ! A9    A(3,2,7)              118.6204         estimate D2E/DX2                !
 ! A10   A(2,3,4)              120.5339         estimate D2E/DX2                !
 ! A11   A(2,3,12)             120.3179         estimate D2E/DX2                !
 ! A12   A(4,3,12)             119.1482         estimate D2E/DX2                !
 ! A13   A(3,4,5)              120.0924         estimate D2E/DX2                !
 ! A14   A(3,4,13)             119.8832         estimate D2E/DX2                !
 ! A15   A(5,4,13)             120.0245         estimate D2E/DX2                !
 ! A16   A(4,5,6)              119.9915         estimate D2E/DX2                !
 ! A17   A(4,5,14)             119.94           estimate D2E/DX2                !
 ! A18   A(6,5,14)             120.0685         estimate D2E/DX2                !
 ! A19   A(5,6,7)              119.6336         estimate D2E/DX2                !
 ! A20   A(5,6,15)             119.1413         estimate D2E/DX2                !
 ! A21   A(7,6,15)             121.2252         estimate D2E/DX2                !
 ! A22   A(2,7,6)              121.1282         estimate D2E/DX2                !
 ! A23   A(2,7,8)              118.6404         estimate D2E/DX2                !
 ! A24   A(6,7,8)              120.2314         estimate D2E/DX2                !
 ! A25   A(7,8,16)             108.5822         estimate D2E/DX2                !
 ! D1    D(9,1,2,3)            119.5533         estimate D2E/DX2                !
 ! D2    D(9,1,2,7)            -60.4467         estimate D2E/DX2                !
 ! D3    D(10,1,2,3)          -119.5536         estimate D2E/DX2                !
 ! D4    D(10,1,2,7)            60.4464         estimate D2E/DX2                !
 ! D5    D(11,1,2,3)             0.0            estimate D2E/DX2                !
 ! D6    D(11,1,2,7)          -180.0            estimate D2E/DX2                !
 ! D7    D(1,2,3,4)           -179.9997         estimate D2E/DX2                !
 ! D8    D(1,2,3,12)             0.0002         estimate D2E/DX2                !
 ! D9    D(7,2,3,4)              0.0002         estimate D2E/DX2                !
 ! D10   D(7,2,3,12)          -179.9998         estimate D2E/DX2                !
 ! D11   D(1,2,7,6)            179.9998         estimate D2E/DX2                !
 ! D12   D(1,2,7,8)             -0.0002         estimate D2E/DX2                !
 ! D13   D(3,2,7,6)             -0.0002         estimate D2E/DX2                !
 ! D14   D(3,2,7,8)            179.9998         estimate D2E/DX2                !
 ! D15   D(2,3,4,5)             -0.0001         estimate D2E/DX2                !
 ! D16   D(2,3,4,13)           179.9998         estimate D2E/DX2                !
 ! D17   D(12,3,4,5)           180.0            estimate D2E/DX2                !
 ! D18   D(12,3,4,13)           -0.0002         estimate D2E/DX2                !
 ! D19   D(3,4,5,6)             -0.0001         estimate D2E/DX2                !
 ! D20   D(3,4,5,14)          -179.9999         estimate D2E/DX2                !
 ! D21   D(13,4,5,6)           180.0            estimate D2E/DX2                !
 ! D22   D(13,4,5,14)            0.0002         estimate D2E/DX2                !
 ! D23   D(4,5,6,7)              0.0002         estimate D2E/DX2                !
 ! D24   D(4,5,6,15)          -179.9999         estimate D2E/DX2                !
 ! D25   D(14,5,6,7)          -180.0            estimate D2E/DX2                !
 ! D26   D(14,5,6,15)           -0.0001         estimate D2E/DX2                !
 ! D27   D(5,6,7,2)             -0.0001         estimate D2E/DX2                !
 ! D28   D(5,6,7,8)            179.9999         estimate D2E/DX2                !
 ! D29   D(15,6,7,2)          -180.0            estimate D2E/DX2                !
 ! D30   D(15,6,7,8)             0.0            estimate D2E/DX2                !
 ! D31   D(2,7,8,16)          -179.9997         estimate D2E/DX2                !
 ! D32   D(6,7,8,16)             0.0003         estimate D2E/DX2                !
 --------------------------------------------------------------------------------
 Trust Radius=3.00D-01 FncErr=1.00D-07 GrdErr=1.00D-07 EigMax=2.50D+02 EigMin=1.00D-04
 Number of steps in this run=     83 maximum allowed number of steps=    100.
 GradGradGradGradGradGradGradGradGradGradGradGradGradGradGradGradGradGrad

                          Input orientation:                          
 ---------------------------------------------------------------------
 Center     Atomic      Atomic             Coordinates (Angstroms)
 Number     Number       Type             X           Y           Z
 ---------------------------------------------------------------------
      1          6           0        2.168578    0.477960   -0.051748
      2          6           0        0.679678    0.290519   -0.035849
      3          6           0       -0.176520    1.388514   -0.194903
      4          6           0       -1.562207    1.215645   -0.180321
      5          6           0       -2.106083   -0.055943   -0.006685
      6          6           0       -1.266005   -1.157644    0.152770
      7          6           0        0.117049   -0.978239    0.137260
      8          8           0        0.951769   -2.049466    0.292429
      9          1           0        2.602232    0.151085    0.898861
     10          1           0        2.614411   -0.095756   -0.870676
     11          1           0        2.439229    1.529176   -0.196521
     12          1           0        0.231281    2.387444   -0.331442
     13          1           0       -2.216502    2.074732   -0.304656
     14          1           0       -3.184792   -0.187631    0.004263
     15          1           0       -1.704237   -2.141358    0.286974
     16          1           0        0.412118   -2.849035    0.400243
 ---------------------------------------------------------------------
                    Distance matrix (angstroms):
                    1          2          3          4          5
     1  C    0.000000
     2  C    1.500737   0.000000
     3  C    2.519739   1.401416   0.000000
     4  C    3.805189   2.429563   1.396504   0.000000
     5  C    4.308110   2.807374   2.417663   1.393875   0.000000
     6  C    3.809644   2.432783   2.791196   2.414785   1.394597
     7  C    2.522897   1.398665   2.407911   2.780986   2.411154
     8  O    2.826122   2.378514   3.651059   4.147833   3.662521
     9  H    1.094788   2.142274   3.232493   4.431757   4.799073
    10  H    1.094788   2.142274   3.232495   4.431760   4.799076
    11  H    1.095110   2.157801   2.619529   4.013733   4.817520
    12  H    2.734498   2.164608   1.087569   2.147685   3.396892
    13  H    4.673604   3.412262   2.155103   1.087010   2.154241
    14  H    5.394879   3.894145   3.401999   2.153146   1.086773
    15  H    4.687671   3.420715   3.876354   3.392345   2.143985
    16  H    3.789240   3.180969   4.319435   4.555945   3.782630
                    6          7          8          9         10
     6  C    0.000000
     7  C    1.394728   0.000000
     8  O    2.394446   1.366880   0.000000
     9  H    4.151226   2.833998   2.816773   0.000000
    10  H    4.151226   2.833995   2.816767   1.786712   0.000000
    11  H    4.590181   3.433811   3.906186   1.767927   1.767930
    12  H    3.878656   3.400081   4.538115   3.483727   3.483728
    13  H    3.400138   3.867995   5.234831   5.326262   5.326267
    14  H    2.155162   3.397779   4.545394   5.865550   5.865553
    15  H    1.085242   2.166182   2.657601   4.916846   4.916845
    16  H    2.395442   1.912094   0.970648   3.747791   3.747783
                   11         12         13         14         15
    11  H    0.000000
    12  H    2.372733   0.000000
    13  H    4.688833   2.467823   0.000000
    14  H    5.883651   4.291068   2.480182   0.000000
    15  H    5.556518   4.963740   4.288106   2.467594   0.000000
    16  H    4.861485   5.290442   5.625834   4.491952   2.234412
                   16
    16  H    0.000000
 Stoichiometry    C7H8O
 Framework group  C1[X(C7H8O)]
 Deg. of freedom    42
 Full point group                 C1      NOp   1
 Largest Abelian subgroup         C1      NOp   1
 Largest concise Abelian subgroup C1      NOp   1
                         Standard orientation:                         
 ---------------------------------------------------------------------
 Center     Atomic      Atomic             Coordinates (Angstroms)
 Number     Number       Type             X           Y           Z
 ---------------------------------------------------------------------
      1          6           0       -1.969558   -1.235461    0.000002
      2          6           0       -0.594690   -0.633841   -0.000001
      3          6           0        0.540552   -1.455543   -0.000003
      4          6           0        1.820563   -0.897156   -0.000001
      5          6           0        1.978929    0.487693    0.000003
      6          6           0        0.858094    1.317531    0.000000
      7          6           0       -0.417523    0.753558   -0.000000
      8          8           0       -1.524508    1.555398   -0.000001
      9          1           0       -2.520138   -0.923480    0.893361
     10          1           0       -2.520144   -0.923475   -0.893351
     11          1           0       -1.928777   -2.329812    0.000002
     12          1           0        0.434808   -2.537959   -0.000007
     13          1           0        2.693819   -1.544471    0.000001
     14          1           0        2.976198    0.919584    0.000004
     15          1           0        0.997382    2.393798    0.000001
     16          1           0       -1.235290    2.481956   -0.000006
 ---------------------------------------------------------------------
 Rotational constants (GHZ):           3.2111596           2.2283424           1.3265909
 Standard basis: VSTO-6G (5D, 7F)
 There are    40 symmetry adapted cartesian basis functions of A   symmetry.
 There are    40 symmetry adapted basis functions of A   symmetry.
    40 basis functions,   240 primitive gaussians,    40 cartesian basis functions
    21 alpha electrons       21 beta electrons
       nuclear repulsion energy       206.6107788919 Hartrees.
 Integral buffers will be    131072 words long.
 Regular integral format.
 Two-electron integral symmetry is turned off.
 Do NDO integrals.
 One-electron integrals computed using PRISM.
 NBasis=    40 RedAO= F EigKep=  0.00D+00  NBF=    40
 NBsUse=    40 1.00D-04 EigRej=  0.00D+00 NBFU=    40
 Simple Huckel Guess.
 Keep J ints in memory in canonical form, NReq=863395.
 Overlap will be assumed to be unity.
 Requested convergence on RMS density matrix=1.00D-08 within 128 cycles.
 Requested convergence on MAX density matrix=1.00D-06.
 Requested convergence on             energy=1.00D-06.
 No special actions if energy rises.
 SCF Done:  E(RPM6) = -0.440484447547E-01 A.U. after   17 cycles
            NFock= 16  Conv=0.41D-08     -V/T= 0.9994

 **********************************************************************

            Population analysis using the SCF density.

 **********************************************************************

 Orbital symmetries:
       Occupied  (A) (A) (A) (A) (A) (A) (A) (A) (A) (A) (A) (A)
                 (A) (A) (A) (A) (A) (A) (A) (A) (A)
       Virtual   (A) (A) (A) (A) (A) (A) (A) (A) (A) (A) (A) (A)
                 (A) (A) (A) (A) (A) (A) (A)
 The electronic state is 1-A.
 Alpha  occ. eigenvalues --   -1.14935  -1.09965  -1.00241  -0.94374  -0.88644
 Alpha  occ. eigenvalues --   -0.81213  -0.75281  -0.68299  -0.61387  -0.59304
 Alpha  occ. eigenvalues --   -0.55248  -0.54957  -0.52186  -0.50888  -0.50035
 Alpha  occ. eigenvalues --   -0.48433  -0.45031  -0.44860  -0.43944  -0.35621
 Alpha  occ. eigenvalues --   -0.32768
 Alpha virt. eigenvalues --    0.00749   0.01568   0.09035   0.09531   0.14224
 Alpha virt. eigenvalues --    0.15255   0.16753   0.17922   0.18152   0.18458
 Alpha virt. eigenvalues --    0.19889   0.20701   0.21238   0.21572   0.21740
 Alpha virt. eigenvalues --    0.22369   0.22720   0.22988   0.25011
          Condensed to atoms (all electrons):
               1          2          3          4          5          6
     1  C    4.451500   0.000000   0.000000   0.000000   0.000000   0.000000
     2  C    0.000000   4.038648   0.000000   0.000000   0.000000   0.000000
     3  C    0.000000   0.000000   4.108746   0.000000   0.000000   0.000000
     4  C    0.000000   0.000000   0.000000   4.220566   0.000000   0.000000
     5  C    0.000000   0.000000   0.000000   0.000000   4.053726   0.000000
     6  C    0.000000   0.000000   0.000000   0.000000   0.000000   4.340478
     7  C    0.000000   0.000000   0.000000   0.000000   0.000000   0.000000
     8  O    0.000000   0.000000   0.000000   0.000000   0.000000   0.000000
     9  H    0.000000   0.000000   0.000000   0.000000   0.000000   0.000000
    10  H    0.000000   0.000000   0.000000   0.000000   0.000000   0.000000
    11  H    0.000000   0.000000   0.000000   0.000000   0.000000   0.000000
    12  H    0.000000   0.000000   0.000000   0.000000   0.000000   0.000000
    13  H    0.000000   0.000000   0.000000   0.000000   0.000000   0.000000
    14  H    0.000000   0.000000   0.000000   0.000000   0.000000   0.000000
    15  H    0.000000   0.000000   0.000000   0.000000   0.000000   0.000000
    16  H    0.000000   0.000000   0.000000   0.000000   0.000000   0.000000
               7          8          9         10         11         12
     1  C    0.000000   0.000000   0.000000   0.000000   0.000000   0.000000
     2  C    0.000000   0.000000   0.000000   0.000000   0.000000   0.000000
     3  C    0.000000   0.000000   0.000000   0.000000   0.000000   0.000000
     4  C    0.000000   0.000000   0.000000   0.000000   0.000000   0.000000
     5  C    0.000000   0.000000   0.000000   0.000000   0.000000   0.000000
     6  C    0.000000   0.000000   0.000000   0.000000   0.000000   0.000000
     7  C    3.733825   0.000000   0.000000   0.000000   0.000000   0.000000
     8  O    0.000000   6.459400   0.000000   0.000000   0.000000   0.000000
     9  H    0.000000   0.000000   0.832433   0.000000   0.000000   0.000000
    10  H    0.000000   0.000000   0.000000   0.832433   0.000000   0.000000
    11  H    0.000000   0.000000   0.000000   0.000000   0.847112   0.000000
    12  H    0.000000   0.000000   0.000000   0.000000   0.000000   0.851476
    13  H    0.000000   0.000000   0.000000   0.000000   0.000000   0.000000
    14  H    0.000000   0.000000   0.000000   0.000000   0.000000   0.000000
    15  H    0.000000   0.000000   0.000000   0.000000   0.000000   0.000000
    16  H    0.000000   0.000000   0.000000   0.000000   0.000000   0.000000
              13         14         15         16
     1  C    0.000000   0.000000   0.000000   0.000000
     2  C    0.000000   0.000000   0.000000   0.000000
     3  C    0.000000   0.000000   0.000000   0.000000
     4  C    0.000000   0.000000   0.000000   0.000000
     5  C    0.000000   0.000000   0.000000   0.000000
     6  C    0.000000   0.000000   0.000000   0.000000
     7  C    0.000000   0.000000   0.000000   0.000000
     8  O    0.000000   0.000000   0.000000   0.000000
     9  H    0.000000   0.000000   0.000000   0.000000
    10  H    0.000000   0.000000   0.000000   0.000000
    11  H    0.000000   0.000000   0.000000   0.000000
    12  H    0.000000   0.000000   0.000000   0.000000
    13  H    0.847502   0.000000   0.000000   0.000000
    14  H    0.000000   0.860248   0.000000   0.000000
    15  H    0.000000   0.000000   0.838799   0.000000
    16  H    0.000000   0.000000   0.000000   0.683108
 Mulliken charges:
               1
     1  C   -0.451500
     2  C   -0.038648
     3  C   -0.108746
     4  C   -0.220566
     5  C   -0.053726
     6  C   -0.340478
     7  C    0.266175
     8  O   -0.459400
     9  H    0.167567
    10  H    0.167567
    11  H    0.152888
    12  H    0.148524
    13  H    0.152498
    14  H    0.139752
    15  H    0.161201
    16  H    0.316892
 Sum of Mulliken charges =   0.00000
 Mulliken charges with hydrogens summed into heavy atoms:
               1
     1  C    0.036523
     2  C   -0.038648
     3  C    0.039778
     4  C   -0.068068
     5  C    0.086025
     6  C   -0.179276
     7  C    0.266175
     8  O   -0.142508
 Charge=              0.0000 electrons
 Dipole moment (field-independent basis, Debye):
    X=              0.6260    Y=              0.4639    Z=             -0.0000  Tot=              0.7792
 N-N= 2.066107788919D+02 E-N=-3.113483512781D+02  KE=-7.460902108499D+01
 Calling FoFJK, ICntrl=      2127 FMM=F ISym2X=0 I1Cent= 0 IOpClX= 0 NMat=1 NMatS=1 NMatT=0.
 ***** Axes restored to original set *****
 -------------------------------------------------------------------
 Center     Atomic                   Forces (Hartrees/Bohr)
 Number     Number              X              Y              Z
 -------------------------------------------------------------------
      1        6          -0.009592392    0.002425498   -0.000404205
      2        6           0.014496526    0.014386031   -0.001907030
      3        6           0.001020518   -0.002080991    0.000297429
      4        6          -0.002340101    0.003118288   -0.000450887
      5        6          -0.001620376    0.000418589   -0.000069909
      6        6          -0.012513921   -0.004224103    0.000503285
      7        6          -0.007331052    0.004126058   -0.000625968
      8        8           0.009470967    0.000744667   -0.000038718
      9        1           0.002474313   -0.002266066    0.000631668
     10        1           0.002478458   -0.002347565    0.000045947
     11        1           0.001918302    0.000775886   -0.000095226
     12        1           0.001680715    0.000296904   -0.000029822
     13        1          -0.000223920    0.000532249   -0.000075877
     14        1          -0.001217211   -0.000755579    0.000097122
     15        1           0.000806033   -0.001489002    0.000213242
     16        1           0.000493141   -0.013660864    0.001908947
 -------------------------------------------------------------------
 Cartesian Forces:  Max     0.014496526 RMS     0.004797831

 GradGradGradGradGradGradGradGradGradGradGradGradGradGradGradGradGradGrad
 Berny optimization.
 FormGI is forming the generalized inverse of G from B-inverse, IUseBI=4.
 Internal  Forces:  Max     0.016419593 RMS     0.004076729
 Search for a local minimum.
 Step number   1 out of a maximum of   83
 All quantities printed in internal units (Hartrees-Bohrs-Radians)
 Mixed Optimization -- RFO/linear search
 Second derivative matrix not updated -- first step.
 ITU=  0
     Eigenvalues ---    0.00756   0.01547   0.02092   0.02105   0.02130
     Eigenvalues ---    0.02132   0.02140   0.02151   0.02159   0.02161
     Eigenvalues ---    0.02165   0.07264   0.07323   0.16000   0.16000
     Eigenvalues ---    0.16000   0.16000   0.16000   0.16000   0.16000
     Eigenvalues ---    0.16000   0.22000   0.22492   0.24485   0.25000
     Eigenvalues ---    0.25000   0.32300   0.34229   0.34265   0.34265
     Eigenvalues ---    0.35095   0.35160   0.35188   0.35368   0.41909
     Eigenvalues ---    0.42187   0.45723   0.46180   0.46351   0.46571
     Eigenvalues ---    0.51581   0.53245
 RFO step:  Lambda=-3.90245033D-03 EMin= 7.56204715D-03
 Linear search not attempted -- first point.
 Iteration  1 RMS(Cart)=  0.03327500 RMS(Int)=  0.00144702
 Iteration  2 RMS(Cart)=  0.00179436 RMS(Int)=  0.00003559
 Iteration  3 RMS(Cart)=  0.00000509 RMS(Int)=  0.00003545
 Iteration  4 RMS(Cart)=  0.00000000 RMS(Int)=  0.00003545
 Variable       Old X    -DE/DX   Delta X   Delta X   Delta X     New X
                                 (Linear)    (Quad)   (Total)
    R1        2.83598  -0.00288   0.00000  -0.00880  -0.00880   2.82718
    R2        2.06885   0.00221   0.00000   0.00636   0.00636   2.07521
    R3        2.06885   0.00221   0.00000   0.00636   0.00636   2.07521
    R4        2.06946   0.00123   0.00000   0.00356   0.00356   2.07302
    R5        2.64829  -0.00072   0.00000  -0.00197  -0.00198   2.64632
    R6        2.64309   0.01267   0.00000   0.02797   0.02797   2.67106
    R7        2.63901   0.00573   0.00000   0.01135   0.01135   2.65036
    R8        2.05521   0.00091   0.00000   0.00256   0.00256   2.05776
    R9        2.63404   0.00582   0.00000   0.01182   0.01183   2.64587
   R10        2.05415   0.00056   0.00000   0.00159   0.00159   2.05574
   R11        2.63541   0.00362   0.00000   0.00811   0.00811   2.64352
   R12        2.05370   0.00130   0.00000   0.00366   0.00366   2.05736
   R13        2.63565   0.01155   0.00000   0.02555   0.02555   2.66121
   R14        2.05081   0.00105   0.00000   0.00294   0.00294   2.05375
   R15        2.58303   0.01642   0.00000   0.03159   0.03159   2.61462
   R16        1.83426   0.01119   0.00000   0.02087   0.02087   1.85512
    A1        1.92463   0.00104   0.00000   0.00365   0.00356   1.92818
    A2        1.92463   0.00104   0.00000   0.00365   0.00356   1.92818
    A3        1.94603   0.00253   0.00000   0.02087   0.02072   1.96674
    A4        1.90894  -0.00303   0.00000  -0.02900  -0.02902   1.87992
    A5        1.87916  -0.00089   0.00000  -0.00016  -0.00030   1.87886
    A6        1.87916  -0.00089   0.00000  -0.00016  -0.00030   1.87886
    A7        2.10258   0.00438   0.00000   0.01712   0.01713   2.11971
    A8        2.11029  -0.00172   0.00000  -0.00691  -0.00690   2.10338
    A9        2.07032  -0.00266   0.00000  -0.01022  -0.01023   2.06009
   A10        2.10371   0.00176   0.00000   0.00505   0.00504   2.10876
   A11        2.09994  -0.00237   0.00000  -0.01159  -0.01159   2.08835
   A12        2.07953   0.00061   0.00000   0.00654   0.00655   2.08608
   A13        2.09601   0.00179   0.00000   0.00485   0.00485   2.10086
   A14        2.09236  -0.00104   0.00000  -0.00333  -0.00333   2.08902
   A15        2.09482  -0.00074   0.00000  -0.00152  -0.00152   2.09331
   A16        2.09425   0.00063   0.00000   0.00250   0.00251   2.09676
   A17        2.09335   0.00031   0.00000   0.00256   0.00256   2.09591
   A18        2.09559  -0.00094   0.00000  -0.00506  -0.00507   2.09053
   A19        2.08800  -0.00328   0.00000  -0.01185  -0.01184   2.07616
   A20        2.07941   0.00302   0.00000   0.01434   0.01434   2.09374
   A21        2.11578   0.00026   0.00000  -0.00249  -0.00249   2.11329
   A22        2.11409   0.00176   0.00000   0.00967   0.00967   2.12376
   A23        2.07067  -0.00819   0.00000  -0.03362  -0.03361   2.03705
   A24        2.09843   0.00643   0.00000   0.02394   0.02394   2.12238
   A25        1.89512   0.01482   0.00000   0.09041   0.09041   1.98553
    D1        2.08660   0.00121   0.00000   0.01574   0.01579   2.10239
    D2       -1.05499   0.00121   0.00000   0.01574   0.01579  -1.03921
    D3       -2.08660  -0.00121   0.00000  -0.01574  -0.01579  -2.10239
    D4        1.05499  -0.00121   0.00000  -0.01574  -0.01579   1.03920
    D5        0.00000  -0.00000   0.00000  -0.00000  -0.00000  -0.00000
    D6       -3.14159  -0.00000   0.00000  -0.00000  -0.00000   3.14159
    D7       -3.14159  -0.00000   0.00000  -0.00000  -0.00000  -3.14159
    D8        0.00000  -0.00000   0.00000  -0.00000  -0.00000   0.00000
    D9        0.00000  -0.00000   0.00000  -0.00000  -0.00000   0.00000
   D10       -3.14159  -0.00000   0.00000  -0.00000  -0.00000  -3.14159
   D11        3.14159   0.00000   0.00000   0.00000   0.00000   3.14159
   D12       -0.00000   0.00000   0.00000   0.00000   0.00000  -0.00000
   D13       -0.00000   0.00000   0.00000   0.00000   0.00000  -0.00000
   D14        3.14159   0.00000   0.00000   0.00000   0.00000   3.14159
   D15       -0.00000   0.00000   0.00000   0.00000   0.00000  -0.00000
   D16        3.14159   0.00000   0.00000   0.00000   0.00000   3.14159
   D17        3.14159  -0.00000   0.00000  -0.00000  -0.00000   3.14159
   D18       -0.00000   0.00000   0.00000   0.00000   0.00000  -0.00000
   D19       -0.00000   0.00000   0.00000   0.00000   0.00000   0.00000
   D20       -3.14159  -0.00000   0.00000  -0.00000  -0.00000   3.14159
   D21        3.14159   0.00000   0.00000   0.00000   0.00000  -3.14159
   D22        0.00000  -0.00000   0.00000  -0.00000  -0.00000   0.00000
   D23        0.00000  -0.00000   0.00000  -0.00000  -0.00000  -0.00000
   D24       -3.14159  -0.00000   0.00000  -0.00000  -0.00000  -3.14159
   D25       -3.14159  -0.00000   0.00000   0.00000   0.00000  -3.14159
   D26       -0.00000   0.00000   0.00000   0.00000   0.00000   0.00000
   D27       -0.00000   0.00000   0.00000   0.00000   0.00000   0.00000
   D28        3.14159   0.00000   0.00000   0.00000   0.00000  -3.14159
   D29       -3.14159  -0.00000   0.00000  -0.00000  -0.00000   3.14159
   D30        0.00000  -0.00000   0.00000  -0.00000  -0.00000  -0.00000
   D31       -3.14159  -0.00000   0.00000  -0.00000  -0.00000  -3.14159
   D32        0.00001  -0.00000   0.00000  -0.00000  -0.00000   0.00000
         Item               Value     Threshold  Converged?
 Maximum Force            0.016420     0.000450     NO 
 RMS     Force            0.004077     0.000300     NO 
 Maximum Displacement     0.219257     0.001800     NO 
 RMS     Displacement     0.034207     0.001200     NO 
 Predicted change in Energy=-1.984365D-03
 GradGradGradGradGradGradGradGradGradGradGradGradGradGradGradGradGradGrad

                          Input orientation:                          
 ---------------------------------------------------------------------
 Center     Atomic      Atomic             Coordinates (Angstroms)
 Number     Number       Type             X           Y           Z
 ---------------------------------------------------------------------
      1          6           0        2.163000    0.474401   -0.051291
      2          6           0        0.676386    0.306911   -0.038158
      3          6           0       -0.183559    1.400717   -0.196651
      4          6           0       -1.575395    1.228591   -0.182217
      5          6           0       -2.129344   -0.045485   -0.008306
      6          6           0       -1.296127   -1.157587    0.152555
      7          6           0        0.099710   -0.971728    0.136233
      8          8           0        0.974286   -2.032738    0.290252
      9          1           0        2.597144    0.126744    0.895598
     10          1           0        2.609232   -0.118283   -0.860949
     11          1           0        2.469968    1.517757   -0.194718
     12          1           0        0.232435    2.397783   -0.332872
     13          1           0       -2.226358    2.091196   -0.307021
     14          1           0       -3.210412   -0.173801    0.002155
     15          1           0       -1.729112   -2.145252    0.287346
     16          1           0        0.528144   -2.899223    0.408045
 ---------------------------------------------------------------------
                    Distance matrix (angstroms):
                    1          2          3          4          5
     1  C    0.000000
     2  C    1.496078   0.000000
     3  C    2.526961   1.400371   0.000000
     4  C    3.815959   2.437368   1.402513   0.000000
     5  C    4.323927   2.827931   2.431677   1.400133   0.000000
     6  C    3.830209   2.464129   2.811524   2.425676   1.398891
     7  C    2.526583   1.413465   2.412374   2.783665   2.418160
     8  O    2.795611   2.381292   3.655994   4.166577   3.697408
     9  H    1.098155   2.143285   3.247819   4.448127   4.815225
    10  H    1.098155   2.143285   3.247820   4.448129   4.815226
    11  H    1.096993   2.169700   2.656108   4.055704   4.861290
    12  H    2.739666   2.157706   1.088921   2.158230   3.413635
    13  H    4.684644   3.417877   2.159159   1.087850   2.159641
    14  H    5.412632   3.916619   3.417670   2.161938   1.088707
    15  H    4.703807   3.450431   3.898318   3.409829   2.157919
    16  H    3.776915   3.240427   4.400189   4.670346   3.921659
                    6          7          8          9         10
     6  C    0.000000
     7  C    1.408251   0.000000
     8  O    2.437134   1.383599   0.000000
     9  H    4.166435   2.832041   2.768299   0.000000
    10  H    4.166434   2.832039   2.768294   1.773596   0.000000
    11  H    4.632659   3.453287   3.883076   1.771971   1.771972
    12  H    3.900358   3.404597   4.535212   3.501229   3.501231
    13  H    3.410444   3.871508   5.254302   5.345235   5.345238
    14  H    2.157532   3.407576   4.588065   5.883560   5.883561
    15  H    1.086797   2.178207   2.705740   4.924270   4.924268
    16  H    2.535061   1.993157   0.981689   3.697966   3.697959
                   11         12         13         14         15
    11  H    0.000000
    12  H    2.408337   0.000000
    13  H    4.732538   2.477968   0.000000
    14  H    5.930164   4.310277   2.488808   0.000000
    15  H    5.593058   4.987134   4.306741   2.482378   0.000000
    16  H    4.862481   5.356741   5.744814   4.644295   2.382907
                   16
    16  H    0.000000
 Stoichiometry    C7H8O
 Framework group  C1[X(C7H8O)]
 Deg. of freedom    42
 Full point group                 C1      NOp   1
 Largest Abelian subgroup         C1      NOp   1
 Largest concise Abelian subgroup C1      NOp   1
                         Standard orientation:                         
 ---------------------------------------------------------------------
 Center     Atomic      Atomic             Coordinates (Angstroms)
 Number     Number       Type             X           Y           Z
 ---------------------------------------------------------------------
      1          6           0       -1.963904   -1.239769    0.000001
      2          6           0       -0.589762   -0.648175   -0.000000
      3          6           0        0.553743   -1.456527   -0.000001
      4          6           0        1.835793   -0.887853   -0.000000
      5          6           0        1.993070    0.503419    0.000000
      6          6           0        0.869796    1.337176    0.000001
      7          6           0       -0.412064    0.754076   -0.000000
      8          8           0       -1.559973    1.526507   -0.000000
      9          1           0       -2.522968   -0.912694    0.886801
     10          1           0       -2.522971   -0.912690   -0.886795
     11          1           0       -1.952290   -2.336700   -0.000000
     12          1           0        0.447429   -2.540246   -0.000003
     13          1           0        2.711541   -1.533208    0.000001
     14          1           0        2.990440    0.939924    0.000001
     15          1           0        0.995129    2.416722    0.000001
     16          1           0       -1.386565    2.492759   -0.000004
 ---------------------------------------------------------------------
 Rotational constants (GHZ):           3.2150380           2.1923491           1.3142383
 Standard basis: VSTO-6G (5D, 7F)
 There are    40 symmetry adapted cartesian basis functions of A   symmetry.
 There are    40 symmetry adapted basis functions of A   symmetry.
    40 basis functions,   240 primitive gaussians,    40 cartesian basis functions
    21 alpha electrons       21 beta electrons
       nuclear repulsion energy       205.9353973702 Hartrees.
 Integral buffers will be    131072 words long.
 Regular integral format.
 Two-electron integral symmetry is turned off.
 Do NDO integrals.
 One-electron integrals computed using PRISM.
 NBasis=    40 RedAO= F EigKep=  0.00D+00  NBF=    40
 NBsUse=    40 1.00D-04 EigRej=  0.00D+00 NBFU=    40
 Initial guess from the checkpoint file:  "3_#_opt_pm6_MMFF.chk"
 B after Tr=    -0.000000   -0.000000   -0.000000
         Rot=    0.999992    0.000000    0.000000   -0.004042 Ang=   0.46 deg.
 Keep J ints in memory in canonical form, NReq=863395.
 Overlap will be assumed to be unity.
 Requested convergence on RMS density matrix=1.00D-08 within 128 cycles.
 Requested convergence on MAX density matrix=1.00D-06.
 Requested convergence on             energy=1.00D-06.
 No special actions if energy rises.
 SCF Done:  E(RPM6) = -0.454587732686E-01 A.U. after   14 cycles
            NFock= 13  Conv=0.78D-08     -V/T= 0.9994
 Calling FoFJK, ICntrl=      2127 FMM=F ISym2X=0 I1Cent= 0 IOpClX= 0 NMat=1 NMatS=1 NMatT=0.
 ***** Axes restored to original set *****
 -------------------------------------------------------------------
 Center     Atomic                   Forces (Hartrees/Bohr)
 Number     Number              X              Y              Z
 -------------------------------------------------------------------
      1        6          -0.005107775    0.001141974   -0.000194343
      2        6           0.004355652    0.001113382   -0.000125301
      3        6          -0.002415355   -0.003494324    0.000470759
      4        6           0.000387690   -0.002458982    0.000345675
      5        6           0.003987123    0.002211067   -0.000280933
      6        6           0.004799269   -0.000022155    0.000036043
      7        6          -0.008824580   -0.005403604    0.000693047
      8        8           0.002304640    0.007449172   -0.001023239
      9        1           0.001152555   -0.001127809    0.000350364
     10        1           0.001155119   -0.001178395   -0.000012837
     11        1          -0.000035816   -0.000440278    0.000061074
     12        1           0.000194882    0.000008755    0.000000185
     13        1           0.000273880   -0.000282300    0.000041235
     14        1           0.000209729   -0.000079484    0.000012517
     15        1           0.001464054    0.000725568   -0.000091126
     16        1          -0.003901067    0.001837412   -0.000283120
 -------------------------------------------------------------------
 Cartesian Forces:  Max     0.008824580 RMS     0.002552711

 GradGradGradGradGradGradGradGradGradGradGradGradGradGradGradGradGradGrad
 Berny optimization.
 Using GEDIIS/GDIIS optimizer.
 FormGI is forming the generalized inverse of G from B-inverse, IUseBI=4.
 Internal  Forces:  Max     0.008609220 RMS     0.002042788
 Search for a local minimum.
 Step number   2 out of a maximum of   83
 All quantities printed in internal units (Hartrees-Bohrs-Radians)
 Mixed Optimization -- RFO/linear search
 Update second derivatives using D2CorX and points    1    2
 DE= -1.41D-03 DEPred=-1.98D-03 R= 7.11D-01
 TightC=F SS=  1.41D+00  RLast= 1.29D-01 DXNew= 5.0454D-01 3.8827D-01
 Trust test= 7.11D-01 RLast= 1.29D-01 DXMaxT set to 3.88D-01
 ITU=  1  0
 Use linear search instead of GDIIS.
     Eigenvalues ---    0.00756   0.01542   0.02093   0.02105   0.02130
     Eigenvalues ---    0.02133   0.02140   0.02151   0.02159   0.02161
     Eigenvalues ---    0.02165   0.07051   0.07086   0.15269   0.16000
     Eigenvalues ---    0.16000   0.16000   0.16000   0.16000   0.16000
     Eigenvalues ---    0.19037   0.21589   0.22116   0.22718   0.24759
     Eigenvalues ---    0.25065   0.32055   0.34111   0.34243   0.34265
     Eigenvalues ---    0.35091   0.35164   0.35191   0.35409   0.42035
     Eigenvalues ---    0.42415   0.45180   0.46201   0.46492   0.48908
     Eigenvalues ---    0.52554   0.65362
 RFO step:  Lambda=-4.88087696D-04 EMin= 7.56204715D-03
 Quartic linear search produced a step of -0.20990.
 Iteration  1 RMS(Cart)=  0.01124322 RMS(Int)=  0.00005114
 Iteration  2 RMS(Cart)=  0.00006439 RMS(Int)=  0.00000459
 Iteration  3 RMS(Cart)=  0.00000000 RMS(Int)=  0.00000459
 Variable       Old X    -DE/DX   Delta X   Delta X   Delta X     New X
                                 (Linear)    (Quad)   (Total)
    R1        2.82718  -0.00300   0.00185  -0.01021  -0.00836   2.81882
    R2        2.07521   0.00111  -0.00134   0.00465   0.00332   2.07853
    R3        2.07521   0.00111  -0.00134   0.00466   0.00332   2.07853
    R4        2.07302  -0.00044  -0.00075   0.00016  -0.00059   2.07243
    R5        2.64632  -0.00265   0.00041  -0.00514  -0.00472   2.64160
    R6        2.67106  -0.00269  -0.00587   0.00448  -0.00138   2.66968
    R7        2.65036  -0.00243  -0.00238  -0.00015  -0.00254   2.64782
    R8        2.05776   0.00008  -0.00054   0.00102   0.00049   2.05825
    R9        2.64587  -0.00351  -0.00248  -0.00191  -0.00440   2.64147
   R10        2.05574  -0.00039  -0.00033  -0.00036  -0.00069   2.05505
   R11        2.64352  -0.00220  -0.00170  -0.00117  -0.00288   2.64064
   R12        2.05736  -0.00020  -0.00077   0.00076  -0.00001   2.05735
   R13        2.66121  -0.00861  -0.00536  -0.00640  -0.01176   2.64945
   R14        2.05375  -0.00125  -0.00062  -0.00183  -0.00245   2.05130
   R15        2.61462  -0.00828  -0.00663  -0.00220  -0.00883   2.60579
   R16        1.85512   0.00012  -0.00438   0.00709   0.00271   1.85783
    A1        1.92818   0.00064  -0.00075   0.00355   0.00281   1.93100
    A2        1.92818   0.00064  -0.00075   0.00355   0.00281   1.93100
    A3        1.96674   0.00012  -0.00435   0.00867   0.00433   1.97108
    A4        1.87992  -0.00139   0.00609  -0.01910  -0.01300   1.86692
    A5        1.87886  -0.00006   0.00006   0.00096   0.00103   1.87989
    A6        1.87886  -0.00006   0.00006   0.00095   0.00103   1.87989
    A7        2.11971   0.00285  -0.00360   0.01452   0.01092   2.13063
    A8        2.10338  -0.00085   0.00145  -0.00496  -0.00351   2.09987
    A9        2.06009  -0.00200   0.00215  -0.00956  -0.00740   2.05269
   A10        2.10876  -0.00013  -0.00106   0.00199   0.00094   2.10969
   A11        2.08835  -0.00012   0.00243  -0.00478  -0.00235   2.08600
   A12        2.08608   0.00025  -0.00137   0.00279   0.00141   2.08749
   A13        2.10086  -0.00030  -0.00102   0.00135   0.00032   2.10117
   A14        2.08902   0.00010   0.00070  -0.00121  -0.00050   2.08852
   A15        2.09331   0.00020   0.00032  -0.00014   0.00019   2.09349
   A16        2.09676   0.00043  -0.00053   0.00242   0.00188   2.09864
   A17        2.09591  -0.00011  -0.00054   0.00054   0.00000   2.09591
   A18        2.09053  -0.00032   0.00106  -0.00295  -0.00189   2.08864
   A19        2.07616  -0.00128   0.00249  -0.00911  -0.00662   2.06953
   A20        2.09374   0.00172  -0.00301   0.01255   0.00954   2.10328
   A21        2.11329  -0.00044   0.00052  -0.00344  -0.00292   2.11037
   A22        2.12376   0.00328  -0.00203   0.01291   0.01089   2.13465
   A23        2.03705  -0.00377   0.00706  -0.02252  -0.01546   2.02159
   A24        2.12238   0.00048  -0.00503   0.00960   0.00457   2.12695
   A25        1.98553  -0.00801  -0.01898  -0.01063  -0.02961   1.95592
    D1        2.10239   0.00045  -0.00331   0.00961   0.00629   2.10868
    D2       -1.03921   0.00045  -0.00331   0.00961   0.00629  -1.03291
    D3       -2.10239  -0.00045   0.00331  -0.00961  -0.00629  -2.10868
    D4        1.03920  -0.00045   0.00331  -0.00961  -0.00629   1.03291
    D5       -0.00000  -0.00000   0.00000  -0.00000  -0.00000  -0.00000
    D6        3.14159  -0.00000   0.00000  -0.00000  -0.00000   3.14159
    D7       -3.14159  -0.00000   0.00000  -0.00000  -0.00000  -3.14159
    D8        0.00000  -0.00000   0.00000  -0.00000  -0.00000   0.00000
    D9        0.00000  -0.00000   0.00000  -0.00000  -0.00000   0.00000
   D10       -3.14159  -0.00000   0.00000  -0.00000  -0.00000  -3.14159
   D11        3.14159   0.00000  -0.00000   0.00000   0.00000   3.14159
   D12       -0.00000   0.00000  -0.00000   0.00000   0.00000  -0.00000
   D13       -0.00000   0.00000  -0.00000   0.00000   0.00000  -0.00000
   D14        3.14159   0.00000  -0.00000   0.00000   0.00000   3.14159
   D15       -0.00000   0.00000  -0.00000   0.00000   0.00000  -0.00000
   D16        3.14159   0.00000  -0.00000   0.00000   0.00000   3.14159
   D17        3.14159   0.00000   0.00000   0.00000   0.00000   3.14159
   D18       -0.00000   0.00000  -0.00000   0.00000   0.00000  -0.00000
   D19        0.00000  -0.00000  -0.00000   0.00000  -0.00000   0.00000
   D20        3.14159   0.00000   0.00000  -0.00000   0.00000  -3.14159
   D21       -3.14159  -0.00000  -0.00000  -0.00000  -0.00000  -3.14159
   D22        0.00000   0.00000   0.00000  -0.00000   0.00000   0.00000
   D23       -0.00000   0.00000   0.00000  -0.00000   0.00000   0.00000
   D24       -3.14159  -0.00000   0.00000  -0.00000  -0.00000  -3.14159
   D25       -3.14159  -0.00000  -0.00000  -0.00000  -0.00000  -3.14159
   D26        0.00000  -0.00000  -0.00000  -0.00000  -0.00000   0.00000
   D27        0.00000  -0.00000  -0.00000   0.00000  -0.00000   0.00000
   D28       -3.14159  -0.00000  -0.00000  -0.00000  -0.00000   3.14159
   D29        3.14159   0.00000   0.00000   0.00000   0.00000  -3.14159
   D30       -0.00000   0.00000   0.00000  -0.00000   0.00000  -0.00000
   D31       -3.14159  -0.00000   0.00000  -0.00000  -0.00000  -3.14159
   D32        0.00000  -0.00000   0.00000  -0.00000  -0.00000   0.00000
         Item               Value     Threshold  Converged?
 Maximum Force            0.008609     0.000450     NO 
 RMS     Force            0.002043     0.000300     NO 
 Maximum Displacement     0.054320     0.001800     NO 
 RMS     Displacement     0.011273     0.001200     NO 
 Predicted change in Energy=-3.481367D-04
 GradGradGradGradGradGradGradGradGradGradGradGradGradGradGradGradGradGrad

                          Input orientation:                          
 ---------------------------------------------------------------------
 Center     Atomic      Atomic             Coordinates (Angstroms)
 Number     Number       Type             X           Y           Z
 ---------------------------------------------------------------------
      1          6           0        2.159474    0.468835   -0.050539
      2          6           0        0.676102    0.312310   -0.038913
      3          6           0       -0.186483    1.400933   -0.196701
      4          6           0       -1.576487    1.225046   -0.181730
      5          6           0       -2.126261   -0.048291   -0.007894
      6          6           0       -1.293220   -1.158643    0.152722
      7          6           0        0.095063   -0.963599    0.135067
      8          8           0        0.979282   -2.010710    0.287214
      9          1           0        2.594345    0.112290    0.894748
     10          1           0        2.606394   -0.131958   -0.856216
     11          1           0        2.478405    1.508355   -0.193350
     12          1           0        0.228162    2.398826   -0.333046
     13          1           0       -2.229274    2.085844   -0.306295
     14          1           0       -3.206993   -0.179321    0.002948
     15          1           0       -1.715518   -2.149436    0.288023
     16          1           0        0.517008   -2.870478    0.403960
 ---------------------------------------------------------------------
                    Distance matrix (angstroms):
                    1          2          3          4          5
     1  C    0.000000
     2  C    1.491653   0.000000
     3  C    2.528573   1.397873   0.000000
     4  C    3.813984   2.434675   1.401168   0.000000
     5  C    4.317031   2.825638   2.428711   1.397804   0.000000
     6  C    3.822446   2.465493   2.810408   2.423648   1.397368
     7  C    2.519546   1.412735   2.404236   2.772113   2.406763
     8  O    2.766781   2.365312   3.637649   4.149938   3.685455
     9  H    1.099912   2.142752   3.253439   4.448918   4.808812
    10  H    1.099912   2.142752   3.253441   4.448920   4.808812
    11  H    1.096683   2.168564   2.667054   4.064794   4.864204
    12  H    2.744930   2.154232   1.089179   2.158105   3.411365
    13  H    4.684148   3.414400   2.157339   1.087484   2.157356
    14  H    5.405732   3.914318   3.414754   2.159839   1.088701
    15  H    4.688874   3.447743   3.895899   3.409857   2.161270
    16  H    3.749037   3.217388   4.370428   4.636709   3.888603
                    6          7          8          9         10
     6  C    0.000000
     7  C    1.402028   0.000000
     8  O    2.430714   1.378925   0.000000
     9  H    4.156806   2.825078   2.735810   0.000000
    10  H    4.156805   2.825076   2.735807   1.767959   0.000000
    11  H    4.632256   3.449454   3.855144   1.773809   1.773809
    12  H    3.899508   3.397463   4.515852   3.512058   3.512060
    13  H    3.407872   3.859592   5.237255   5.348338   5.348341
    14  H    2.155002   3.396487   4.578176   5.876723   5.876724
    15  H    1.085502   2.169749   2.698369   4.904941   4.904939
    16  H    2.504081   1.971428   0.983121   3.667848   3.667843
                   11         12         13         14         15
    11  H    0.000000
    12  H    2.424056   0.000000
    13  H    4.744312   2.477431   0.000000
    14  H    5.933847   4.308135   2.486471   0.000000
    15  H    5.585709   4.985009   4.307523   2.487392   0.000000
    16  H    4.835084   5.328431   5.710662   4.612084   2.348939
                   16
    16  H    0.000000
 Stoichiometry    C7H8O
 Framework group  C1[X(C7H8O)]
 Deg. of freedom    42
 Full point group                 C1      NOp   1
 Largest Abelian subgroup         C1      NOp   1
 Largest concise Abelian subgroup C1      NOp   1
                         Standard orientation:                         
 ---------------------------------------------------------------------
 Center     Atomic      Atomic             Coordinates (Angstroms)
 Number     Number       Type             X           Y           Z
 ---------------------------------------------------------------------
      1          6           0       -1.971359   -1.217151    0.000000
      2          6           0       -0.593141   -0.646587   -0.000000
      3          6           0        0.545809   -1.457046   -0.000001
      4          6           0        1.828920   -0.894107    0.000000
      5          6           0        1.991999    0.494151    0.000000
      6          6           0        0.875173    1.333995    0.000000
      7          6           0       -0.400804    0.752994   -0.000000
      8          8           0       -1.548631    1.517145    0.000000
      9          1           0       -2.531264   -0.878197    0.883981
     10          1           0       -2.531266   -0.878194   -0.883977
     11          1           0       -1.979889   -2.313801   -0.000001
     12          1           0        0.433551   -2.540425   -0.000002
     13          1           0        2.701426   -1.543224    0.000000
     14          1           0        2.991258    0.926297    0.000001
     15          1           0        0.996806    2.412661    0.000000
     16          1           0       -1.351162    2.480231   -0.000003
 ---------------------------------------------------------------------
 Rotational constants (GHZ):           3.2466516           2.1981305           1.3215129
 Standard basis: VSTO-6G (5D, 7F)
 There are    40 symmetry adapted cartesian basis functions of A   symmetry.
 There are    40 symmetry adapted basis functions of A   symmetry.
    40 basis functions,   240 primitive gaussians,    40 cartesian basis functions
    21 alpha electrons       21 beta electrons
       nuclear repulsion energy       206.2601043364 Hartrees.
 Integral buffers will be    131072 words long.
 Regular integral format.
 Two-electron integral symmetry is turned off.
 Do NDO integrals.
 One-electron integrals computed using PRISM.
 NBasis=    40 RedAO= F EigKep=  0.00D+00  NBF=    40
 NBsUse=    40 1.00D-04 EigRej=  0.00D+00 NBFU=    40
 Initial guess from the checkpoint file:  "3_#_opt_pm6_MMFF.chk"
 B after Tr=     0.000000   -0.000000   -0.000000
         Rot=    0.999996    0.000000    0.000000    0.002795 Ang=   0.32 deg.
 Keep J ints in memory in canonical form, NReq=863395.
 Overlap will be assumed to be unity.
 Requested convergence on RMS density matrix=1.00D-08 within 128 cycles.
 Requested convergence on MAX density matrix=1.00D-06.
 Requested convergence on             energy=1.00D-06.
 No special actions if energy rises.
 SCF Done:  E(RPM6) = -0.458793243557E-01 A.U. after   14 cycles
            NFock= 13  Conv=0.49D-08     -V/T= 0.9994
 Calling FoFJK, ICntrl=      2127 FMM=F ISym2X=0 I1Cent= 0 IOpClX= 0 NMat=1 NMatS=1 NMatT=0.
 ***** Axes restored to original set *****
 -------------------------------------------------------------------
 Center     Atomic                   Forces (Hartrees/Bohr)
 Number     Number              X              Y              Z
 -------------------------------------------------------------------
      1        6          -0.001568631    0.000815941   -0.000124550
      2        6           0.002197910    0.002113701   -0.000279706
      3        6          -0.000383288   -0.000681357    0.000092391
      4        6          -0.000922465   -0.001098192    0.000146842
      5        6           0.000548236    0.002104031   -0.000289712
      6        6           0.002198396   -0.001139827    0.000174104
      7        6          -0.003617908   -0.002171660    0.000278050
      8        8           0.001454854    0.001927467   -0.000258876
      9        1           0.000606803   -0.000561074    0.000172515
     10        1           0.000608056   -0.000585705   -0.000004228
     11        1          -0.000163640   -0.000347525    0.000047309
     12        1          -0.000023480    0.000240870   -0.000033732
     13        1           0.000054201    0.000013439   -0.000001517
     14        1          -0.000092783   -0.000018423    0.000001931
     15        1           0.000323343    0.000342042   -0.000045485
     16        1          -0.001219604   -0.000953729    0.000124664
 -------------------------------------------------------------------
 Cartesian Forces:  Max     0.003617908 RMS     0.001063167

 GradGradGradGradGradGradGradGradGradGradGradGradGradGradGradGradGradGrad
 Berny optimization.
 Using GEDIIS/GDIIS optimizer.
 FormGI is forming the generalized inverse of G from B-inverse, IUseBI=4.
 Internal  Forces:  Max     0.002263410 RMS     0.000510009
 Search for a local minimum.
 Step number   3 out of a maximum of   83
 All quantities printed in internal units (Hartrees-Bohrs-Radians)
 Mixed Optimization -- En-DIIS/RFO-DIIS
 Update second derivatives using D2CorX and points    1    2    3
 DE= -4.21D-04 DEPred=-3.48D-04 R= 1.21D+00
 TightC=F SS=  1.41D+00  RLast= 4.84D-02 DXNew= 6.5299D-01 1.4531D-01
 Trust test= 1.21D+00 RLast= 4.84D-02 DXMaxT set to 3.88D-01
 ITU=  1  1  0
 Use linear search instead of GDIIS.
     Eigenvalues ---    0.00756   0.01539   0.02093   0.02105   0.02130
     Eigenvalues ---    0.02133   0.02140   0.02151   0.02159   0.02161
     Eigenvalues ---    0.02165   0.06774   0.06985   0.14237   0.16000
     Eigenvalues ---    0.16000   0.16000   0.16000   0.16000   0.16074
     Eigenvalues ---    0.18359   0.19678   0.22108   0.22624   0.24758
     Eigenvalues ---    0.25053   0.31800   0.33989   0.34247   0.34265
     Eigenvalues ---    0.35092   0.35164   0.35194   0.35360   0.41967
     Eigenvalues ---    0.42480   0.44236   0.46215   0.46690   0.48713
     Eigenvalues ---    0.52069   0.64923
 RFO step:  Lambda=-5.02400254D-05 EMin= 7.56204715D-03
 Quartic linear search produced a step of  0.24146.
 Iteration  1 RMS(Cart)=  0.00443374 RMS(Int)=  0.00001111
 Iteration  2 RMS(Cart)=  0.00001496 RMS(Int)=  0.00000308
 Iteration  3 RMS(Cart)=  0.00000000 RMS(Int)=  0.00000308
 Variable       Old X    -DE/DX   Delta X   Delta X   Delta X     New X
                                 (Linear)    (Quad)   (Total)
    R1        2.81882  -0.00059  -0.00202  -0.00129  -0.00331   2.81551
    R2        2.07853   0.00057   0.00080   0.00190   0.00270   2.08123
    R3        2.07853   0.00057   0.00080   0.00190   0.00270   2.08123
    R4        2.07243  -0.00038  -0.00014  -0.00117  -0.00131   2.07112
    R5        2.64160   0.00005  -0.00114   0.00102  -0.00012   2.64148
    R6        2.66968   0.00143  -0.00033   0.00591   0.00558   2.67526
    R7        2.64782   0.00015  -0.00061   0.00152   0.00090   2.64873
    R8        2.05825   0.00022   0.00012   0.00085   0.00097   2.05922
    R9        2.64147  -0.00134  -0.00106  -0.00242  -0.00349   2.63798
   R10        2.05505  -0.00002  -0.00017   0.00013  -0.00004   2.05501
   R11        2.64064   0.00092  -0.00069   0.00341   0.00271   2.64335
   R12        2.05735   0.00009  -0.00000   0.00054   0.00054   2.05789
   R13        2.64945  -0.00226  -0.00284  -0.00288  -0.00571   2.64373
   R14        2.05130  -0.00044  -0.00059  -0.00103  -0.00163   2.04967
   R15        2.60579  -0.00060  -0.00213   0.00177  -0.00036   2.60543
   R16        1.85783   0.00142   0.00065   0.00411   0.00477   1.86260
    A1        1.93100   0.00039   0.00068   0.00228   0.00296   1.93395
    A2        1.93100   0.00039   0.00068   0.00228   0.00296   1.93395
    A3        1.97108  -0.00011   0.00105   0.00036   0.00140   1.97248
    A4        1.86692  -0.00072  -0.00314  -0.00708  -0.01022   1.85670
    A5        1.87989  -0.00000   0.00025   0.00083   0.00106   1.88096
    A6        1.87989  -0.00000   0.00025   0.00083   0.00106   1.88096
    A7        2.13063   0.00110   0.00264   0.00438   0.00702   2.13765
    A8        2.09987  -0.00041  -0.00085  -0.00204  -0.00289   2.09698
    A9        2.05269  -0.00069  -0.00179  -0.00234  -0.00413   2.04856
   A10        2.10969   0.00008   0.00023   0.00089   0.00112   2.11081
   A11        2.08600   0.00008  -0.00057   0.00043  -0.00014   2.08587
   A12        2.08749  -0.00016   0.00034  -0.00132  -0.00098   2.08650
   A13        2.10117  -0.00001   0.00008  -0.00005   0.00002   2.10120
   A14        2.08852  -0.00005  -0.00012  -0.00039  -0.00051   2.08801
   A15        2.09349   0.00006   0.00004   0.00044   0.00048   2.09397
   A16        2.09864   0.00031   0.00045   0.00112   0.00157   2.10021
   A17        2.09591  -0.00015   0.00000  -0.00049  -0.00049   2.09542
   A18        2.08864  -0.00016  -0.00046  -0.00063  -0.00108   2.08756
   A19        2.06953  -0.00021  -0.00160  -0.00096  -0.00256   2.06698
   A20        2.10328   0.00027   0.00230   0.00108   0.00338   2.10667
   A21        2.11037  -0.00006  -0.00070  -0.00012  -0.00082   2.10955
   A22        2.13465   0.00053   0.00263   0.00134   0.00397   2.13862
   A23        2.02159  -0.00074  -0.00373  -0.00277  -0.00650   2.01509
   A24        2.12695   0.00021   0.00110   0.00143   0.00253   2.12948
   A25        1.95592  -0.00116  -0.00715   0.00053  -0.00662   1.94930
    D1        2.10868   0.00020   0.00152   0.00295   0.00448   2.11316
    D2       -1.03291   0.00020   0.00152   0.00295   0.00448  -1.02844
    D3       -2.10868  -0.00020  -0.00152  -0.00295  -0.00448  -2.11316
    D4        1.03291  -0.00020  -0.00152  -0.00295  -0.00448   1.02843
    D5       -0.00000  -0.00000  -0.00000  -0.00000  -0.00000  -0.00000
    D6        3.14159  -0.00000  -0.00000  -0.00000  -0.00000   3.14159
    D7       -3.14159  -0.00000  -0.00000  -0.00000  -0.00000  -3.14159
    D8        0.00000  -0.00000  -0.00000  -0.00000  -0.00000   0.00000
    D9        0.00000  -0.00000  -0.00000  -0.00000  -0.00000   0.00000
   D10       -3.14159  -0.00000  -0.00000  -0.00000  -0.00000  -3.14159
   D11        3.14159   0.00000   0.00000   0.00000   0.00000   3.14159
   D12       -0.00000   0.00000   0.00000   0.00000   0.00000  -0.00000
   D13       -0.00000   0.00000   0.00000   0.00000   0.00000  -0.00000
   D14        3.14159   0.00000   0.00000   0.00000   0.00000  -3.14159
   D15       -0.00000   0.00000   0.00000   0.00000   0.00000  -0.00000
   D16        3.14159   0.00000   0.00000   0.00000   0.00000   3.14159
   D17        3.14159   0.00000   0.00000   0.00000   0.00000   3.14159
   D18       -0.00000   0.00000   0.00000   0.00000   0.00000  -0.00000
   D19        0.00000  -0.00000  -0.00000  -0.00000  -0.00000  -0.00000
   D20       -3.14159  -0.00000   0.00000  -0.00000  -0.00000   3.14159
   D21       -3.14159  -0.00000  -0.00000  -0.00000  -0.00000  -3.14159
   D22        0.00000  -0.00000   0.00000  -0.00000  -0.00000   0.00000
   D23        0.00000  -0.00000   0.00000  -0.00000  -0.00000   0.00000
   D24       -3.14159  -0.00000  -0.00000  -0.00000  -0.00000  -3.14159
   D25       -3.14159  -0.00000  -0.00000  -0.00000  -0.00000  -3.14159
   D26        0.00000  -0.00000  -0.00000   0.00000  -0.00000   0.00000
   D27        0.00000  -0.00000  -0.00000   0.00000   0.00000   0.00000
   D28        3.14159   0.00000  -0.00000   0.00000   0.00000   3.14159
   D29       -3.14159  -0.00000   0.00000  -0.00000  -0.00000   3.14159
   D30       -0.00000   0.00000   0.00000   0.00000   0.00000  -0.00000
   D31       -3.14159  -0.00000  -0.00000  -0.00000  -0.00000  -3.14159
   D32        0.00000  -0.00000  -0.00000  -0.00000  -0.00000   0.00000
         Item               Value     Threshold  Converged?
 Maximum Force            0.002263     0.000450     NO 
 RMS     Force            0.000510     0.000300     NO 
 Maximum Displacement     0.014842     0.001800     NO 
 RMS     Displacement     0.004433     0.001200     NO 
 Predicted change in Energy=-4.275697D-05
 GradGradGradGradGradGradGradGradGradGradGradGradGradGradGradGradGradGrad

                          Input orientation:                          
 ---------------------------------------------------------------------
 Center     Atomic      Atomic             Coordinates (Angstroms)
 Number     Number       Type             X           Y           Z
 ---------------------------------------------------------------------
      1          6           0        2.158861    0.466777   -0.050256
      2          6           0        0.676575    0.316697   -0.039521
      3          6           0       -0.188994    1.402914   -0.196994
      4          6           0       -1.579183    1.224721   -0.181703
      5          6           0       -2.126167   -0.047806   -0.007961
      6          6           0       -1.292230   -1.159268    0.152816
      7          6           0        0.092547   -0.961086    0.134699
      8          8           0        0.982055   -2.003546    0.286234
      9          1           0        2.595617    0.104436    0.893618
     10          1           0        2.607636   -0.139200   -0.852964
     11          1           0        2.483525    1.503840   -0.192685
     12          1           0        0.223209    2.402344   -0.333569
     13          1           0       -2.232936    2.084775   -0.306171
     14          1           0       -3.207037   -0.180066    0.003051
     15          1           0       -1.710776   -2.150695    0.288231
     16          1           0        0.517297   -2.864834    0.403175
 ---------------------------------------------------------------------
                    Distance matrix (angstroms):
                    1          2          3          4          5
     1  C    0.000000
     2  C    1.489903   0.000000
     3  C    2.531858   1.397810   0.000000
     4  C    3.816377   2.435809   1.401646   0.000000
     5  C    4.316022   2.826521   2.427542   1.395959   0.000000
     6  C    3.820378   2.468128   2.811453   2.424386   1.398803
     7  C    2.518463   1.415687   2.403701   2.769936   2.403565
     8  O    2.756918   2.362829   3.634396   4.147363   3.684090
     9  H    1.101339   2.144418   3.260298   4.454247   4.809498
    10  H    1.101339   2.144418   3.260299   4.454248   4.809498
    11  H    1.095989   2.167450   2.674428   4.072300   4.867339
    12  H    2.751987   2.154513   1.089690   2.158350   3.410106
    13  H    4.687354   3.415034   2.157441   1.087464   2.155975
    14  H    5.405007   3.915485   3.413857   2.158117   1.088987
    15  H    4.683997   3.448897   3.896075   3.410512   2.163891
    16  H    3.741653   3.216130   4.367233   4.632686   3.884918
                    6          7          8          9         10
     6  C    0.000000
     7  C    1.399004   0.000000
     8  O    2.429605   1.378735   0.000000
     9  H    4.154647   2.824297   2.723249   0.000000
    10  H    4.154646   2.824295   2.723245   1.763534   0.000000
    11  H    4.633340   3.449611   3.845196   1.775092   1.775092
    12  H    3.901052   3.398383   4.513521   3.523449   3.523451
    13  H    3.408726   3.857397   5.234643   5.355013   5.355015
    14  H    2.155865   3.393314   4.577528   5.877486   5.877487
    15  H    1.084641   2.165807   2.696850   4.898687   4.898685
    16  H    2.499205   1.968946   0.985643   3.657391   3.657387
                   11         12         13         14         15
    11  H    0.000000
    12  H    2.436429   0.000000
    13  H    4.753459   2.476742   0.000000
    14  H    5.937706   4.306825   2.484752   0.000000
    15  H    5.583823   4.985689   4.308732   2.490683   0.000000
    16  H    4.827672   5.326579   5.706627   4.608551   2.342545
                   16
    16  H    0.000000
 Stoichiometry    C7H8O
 Framework group  C1[X(C7H8O)]
 Deg. of freedom    42
 Full point group                 C1      NOp   1
 Largest Abelian subgroup         C1      NOp   1
 Largest concise Abelian subgroup C1      NOp   1
                         Standard orientation:                         
 ---------------------------------------------------------------------
 Center     Atomic      Atomic             Coordinates (Angstroms)
 Number     Number       Type             X           Y           Z
 ---------------------------------------------------------------------
      1          6           0       -1.972420   -1.213010    0.000000
      2          6           0       -0.593206   -0.649468   -0.000000
      3          6           0        0.547641   -1.457145   -0.000000
      4          6           0        1.830462   -0.892363   -0.000000
      5          6           0        1.991574    0.494268    0.000000
      6          6           0        0.873860    1.335318    0.000000
      7          6           0       -0.398057    0.752705   -0.000000
      8          8           0       -1.549366    1.511254    0.000000
      9          1           0       -2.535572   -0.869075    0.881768
     10          1           0       -2.535574   -0.869071   -0.881765
     11          1           0       -1.987529   -2.308895   -0.000002
     12          1           0        0.437792   -2.541284   -0.000000
     13          1           0        2.703460   -1.540786    0.000000
     14          1           0        2.990762    0.927300    0.000000
     15          1           0        0.992082    2.413497    0.000000
     16          1           0       -1.349618    2.476445   -0.000002
 ---------------------------------------------------------------------
 Rotational constants (GHZ):           3.2555582           2.1965945           1.3223751
 Standard basis: VSTO-6G (5D, 7F)
 There are    40 symmetry adapted cartesian basis functions of A   symmetry.
 There are    40 symmetry adapted basis functions of A   symmetry.
    40 basis functions,   240 primitive gaussians,    40 cartesian basis functions
    21 alpha electrons       21 beta electrons
       nuclear repulsion energy       206.2913955827 Hartrees.
 Integral buffers will be    131072 words long.
 Regular integral format.
 Two-electron integral symmetry is turned off.
 Do NDO integrals.
 One-electron integrals computed using PRISM.
 NBasis=    40 RedAO= F EigKep=  0.00D+00  NBF=    40
 NBsUse=    40 1.00D-04 EigRej=  0.00D+00 NBFU=    40
 Initial guess from the checkpoint file:  "3_#_opt_pm6_MMFF.chk"
 B after Tr=    -0.000000   -0.000000    0.000000
         Rot=    1.000000    0.000000    0.000000   -0.000096 Ang=  -0.01 deg.
 Keep J ints in memory in canonical form, NReq=863395.
 Overlap will be assumed to be unity.
 Requested convergence on RMS density matrix=1.00D-08 within 128 cycles.
 Requested convergence on MAX density matrix=1.00D-06.
 Requested convergence on             energy=1.00D-06.
 No special actions if energy rises.
 SCF Done:  E(RPM6) = -0.459268005391E-01 A.U. after   13 cycles
            NFock= 12  Conv=0.66D-08     -V/T= 0.9994
 Calling FoFJK, ICntrl=      2127 FMM=F ISym2X=0 I1Cent= 0 IOpClX= 0 NMat=1 NMatS=1 NMatT=0.
 ***** Axes restored to original set *****
 -------------------------------------------------------------------
 Center     Atomic                   Forces (Hartrees/Bohr)
 Number     Number              X              Y              Z
 -------------------------------------------------------------------
      1        6          -0.000135082    0.000193540   -0.000027908
      2        6          -0.000378539    0.001212743   -0.000171769
      3        6           0.001231204   -0.000662087    0.000100823
      4        6          -0.000739319   -0.000613179    0.000080451
      5        6          -0.000271560    0.000875783   -0.000124032
      6        6           0.000890362   -0.000377946    0.000058835
      7        6          -0.000434455   -0.000155285    0.000018683
      8        8           0.000463809    0.000372751   -0.000048823
      9        1           0.000023572   -0.000105874   -0.000034417
     10        1           0.000022912   -0.000092376    0.000062377
     11        1          -0.000120867   -0.000095958    0.000012548
     12        1          -0.000078597    0.000006810   -0.000001484
     13        1           0.000054242    0.000095322   -0.000012929
     14        1          -0.000013029   -0.000117148    0.000016251
     15        1          -0.000220246    0.000122588   -0.000018613
     16        1          -0.000294405   -0.000659685    0.000090008
 -------------------------------------------------------------------
 Cartesian Forces:  Max     0.001231204 RMS     0.000398816

 GradGradGradGradGradGradGradGradGradGradGradGradGradGradGradGradGradGrad
 Berny optimization.
 Using GEDIIS/GDIIS optimizer.
 FormGI is forming the generalized inverse of G from B-inverse, IUseBI=4.
 Internal  Forces:  Max     0.000920568 RMS     0.000198574
 Search for a local minimum.
 Step number   4 out of a maximum of   83
 All quantities printed in internal units (Hartrees-Bohrs-Radians)
 Mixed Optimization -- En-DIIS/RFO-DIIS
 Swapping is turned off.
 Update second derivatives using D2CorX and points    1    2    3    4
 DE= -4.75D-05 DEPred=-4.28D-05 R= 1.11D+00
 TightC=F SS=  1.41D+00  RLast= 2.35D-02 DXNew= 6.5299D-01 7.0510D-02
 Trust test= 1.11D+00 RLast= 2.35D-02 DXMaxT set to 3.88D-01
 ITU=  1  1  1  0
     Eigenvalues ---    0.00756   0.01537   0.02093   0.02105   0.02130
     Eigenvalues ---    0.02133   0.02140   0.02151   0.02159   0.02161
     Eigenvalues ---    0.02165   0.06413   0.06944   0.13801   0.16000
     Eigenvalues ---    0.16000   0.16000   0.16000   0.16080   0.16338
     Eigenvalues ---    0.18623   0.19442   0.22102   0.22612   0.24841
     Eigenvalues ---    0.25098   0.31306   0.33926   0.34255   0.34265
     Eigenvalues ---    0.35099   0.35167   0.35190   0.35341   0.41061
     Eigenvalues ---    0.42411   0.43211   0.46481   0.48308   0.48713
     Eigenvalues ---    0.51815   0.65831
 En-DIIS/RFO-DIIS/Sim-DIIS IScMMF=       -3 using points:     4    3
 RFO step:  Lambda=-9.57565608D-06.
 DidBck=F Rises=F RFO-DIIS coefs:    1.22751   -0.22751
 Iteration  1 RMS(Cart)=  0.00089157 RMS(Int)=  0.00000079
 Iteration  2 RMS(Cart)=  0.00000088 RMS(Int)=  0.00000048
 Variable       Old X    -DE/DX   Delta X   Delta X   Delta X     New X
                                 (Linear)    (Quad)   (Total)
    R1        2.81551  -0.00022  -0.00075  -0.00068  -0.00143   2.81408
    R2        2.08123   0.00001   0.00061  -0.00016   0.00046   2.08169
    R3        2.08123   0.00001   0.00061  -0.00016   0.00046   2.08169
    R4        2.07112  -0.00013  -0.00030  -0.00025  -0.00055   2.07057
    R5        2.64148  -0.00092  -0.00003  -0.00251  -0.00253   2.63895
    R6        2.67526   0.00038   0.00127   0.00026   0.00153   2.67679
    R7        2.64873   0.00057   0.00021   0.00121   0.00142   2.65014
    R8        2.05922  -0.00002   0.00022  -0.00017   0.00005   2.05926
    R9        2.63798  -0.00048  -0.00079  -0.00078  -0.00158   2.63640
   R10        2.05501   0.00004  -0.00001   0.00013   0.00012   2.05513
   R11        2.64335   0.00047   0.00062   0.00076   0.00138   2.64474
   R12        2.05789   0.00003   0.00012   0.00003   0.00016   2.05805
   R13        2.64373  -0.00027  -0.00130  -0.00016  -0.00146   2.64227
   R14        2.04967  -0.00003  -0.00037   0.00005  -0.00032   2.04936
   R15        2.60543   0.00033  -0.00008   0.00062   0.00054   2.60597
   R16        1.86260   0.00073   0.00108   0.00111   0.00220   1.86480
    A1        1.93395   0.00002   0.00067  -0.00028   0.00039   1.93434
    A2        1.93395   0.00002   0.00067  -0.00028   0.00039   1.93434
    A3        1.97248  -0.00010   0.00032  -0.00037  -0.00005   1.97242
    A4        1.85670  -0.00009  -0.00232  -0.00033  -0.00265   1.85404
    A5        1.88096   0.00008   0.00024   0.00065   0.00089   1.88185
    A6        1.88096   0.00008   0.00024   0.00065   0.00089   1.88185
    A7        2.13765   0.00003   0.00160  -0.00026   0.00134   2.13899
    A8        2.09698  -0.00014  -0.00066  -0.00035  -0.00101   2.09597
    A9        2.04856   0.00011  -0.00094   0.00061  -0.00033   2.04823
   A10        2.11081   0.00007   0.00025   0.00013   0.00038   2.11119
   A11        2.08587   0.00004  -0.00003   0.00031   0.00028   2.08615
   A12        2.08650  -0.00011  -0.00022  -0.00044  -0.00066   2.08584
   A13        2.10120   0.00000   0.00001   0.00006   0.00006   2.10126
   A14        2.08801  -0.00011  -0.00012  -0.00071  -0.00083   2.08719
   A15        2.09397   0.00010   0.00011   0.00066   0.00077   2.09474
   A16        2.10021  -0.00012   0.00036  -0.00061  -0.00025   2.09995
   A17        2.09542   0.00018  -0.00011   0.00116   0.00105   2.09647
   A18        2.08756  -0.00006  -0.00025  -0.00055  -0.00080   2.08676
   A19        2.06698   0.00006  -0.00058   0.00045  -0.00013   2.06684
   A20        2.10667  -0.00029   0.00077  -0.00205  -0.00128   2.10538
   A21        2.10955   0.00023  -0.00019   0.00160   0.00142   2.11096
   A22        2.13862  -0.00012   0.00090  -0.00063   0.00027   2.13889
   A23        2.01509   0.00009  -0.00148   0.00051  -0.00097   2.01412
   A24        2.12948   0.00004   0.00058   0.00012   0.00070   2.13018
   A25        1.94930   0.00010  -0.00151   0.00100  -0.00051   1.94880
    D1        2.11316   0.00004   0.00102   0.00038   0.00140   2.11456
    D2       -1.02844   0.00004   0.00102   0.00038   0.00140  -1.02704
    D3       -2.11316  -0.00004  -0.00102  -0.00038  -0.00140  -2.11456
    D4        1.02843  -0.00004  -0.00102  -0.00038  -0.00140   1.02703
    D5       -0.00000  -0.00000  -0.00000  -0.00000  -0.00000  -0.00000
    D6        3.14159  -0.00000  -0.00000  -0.00000  -0.00000   3.14159
    D7       -3.14159  -0.00000  -0.00000  -0.00000  -0.00000  -3.14159
    D8        0.00000  -0.00000  -0.00000  -0.00000  -0.00000   0.00000
    D9        0.00000  -0.00000  -0.00000  -0.00000  -0.00000  -0.00000
   D10       -3.14159  -0.00000  -0.00000  -0.00000  -0.00000   3.14159
   D11        3.14159   0.00000   0.00000   0.00000   0.00000   3.14159
   D12       -0.00000   0.00000   0.00000   0.00000   0.00000   0.00000
   D13       -0.00000   0.00000   0.00000   0.00000   0.00000   0.00000
   D14       -3.14159   0.00000   0.00000   0.00000   0.00000  -3.14159
   D15       -0.00000   0.00000   0.00000   0.00000   0.00000   0.00000
   D16        3.14159   0.00000   0.00000   0.00000   0.00000  -3.14159
   D17        3.14159   0.00000   0.00000   0.00000   0.00000   3.14159
   D18       -0.00000   0.00000   0.00000   0.00000   0.00000   0.00000
   D19       -0.00000   0.00000  -0.00000   0.00000   0.00000   0.00000
   D20        3.14159   0.00000  -0.00000   0.00000   0.00000   3.14159
[...]
   D27       -0.00000   0.00000  -0.00000   0.00000   0.00000   0.00000
   D28        3.14159   0.00000   0.00000   0.00000   0.00000   3.14159
   D29       -3.14159  -0.00000   0.00000  -0.00000  -0.00000  -3.14159
   D30       -0.00000  -0.00000   0.00000  -0.00000   0.00000   0.00000
   D31       -3.14159  -0.00000  -0.00000  -0.00000  -0.00000  -3.14159
   D32        0.00000  -0.00000  -0.00000  -0.00000  -0.00000   0.00000
         Item               Value     Threshold  Converged?
 Maximum Force            0.000095     0.000450     YES
 RMS     Force            0.000036     0.000300     YES
 Maximum Displacement     0.001026     0.001800     YES
 RMS     Displacement     0.000358     0.001200     YES
 Predicted change in Energy=-2.902970D-07
 Optimization completed.
    -- Stationary point found.
                           ----------------------------
                           !   Optimized Parameters   !
                           ! (Angstroms and Degrees)  !
 --------------------------                            --------------------------
 ! Name  Definition              Value          Derivative Info.                !
 --------------------------------------------------------------------------------
 ! R1    R(1,2)                  1.4896         -DE/DX =    0.0                 !
 ! R2    R(1,9)                  1.1016         -DE/DX =   -0.0001              !
 ! R3    R(1,10)                 1.1016         -DE/DX =   -0.0001              !
 ! R4    R(1,11)                 1.0956         -DE/DX =    0.0                 !
 ! R5    R(2,3)                  1.396          -DE/DX =   -0.0001              !
 ! R6    R(2,7)                  1.4172         -DE/DX =    0.0                 !
 ! R7    R(3,4)                  1.4032         -DE/DX =    0.0                 !
 ! R8    R(3,12)                 1.0898         -DE/DX =    0.0                 !
 ! R9    R(4,5)                  1.3945         -DE/DX =   -0.0001              !
 ! R10   R(4,13)                 1.0876         -DE/DX =    0.0                 !
 ! R11   R(5,6)                  1.4003         -DE/DX =    0.0001              !
 ! R12   R(5,14)                 1.089          -DE/DX =    0.0                 !
 ! R13   R(6,7)                  1.3977         -DE/DX =    0.0                 !
 ! R14   R(6,15)                 1.0845         -DE/DX =    0.0                 !
 ! R15   R(7,8)                  1.3791         -DE/DX =    0.0                 !
 ! R16   R(8,16)                 0.9875         -DE/DX =    0.0                 !
 ! A1    A(2,1,9)              110.8324         -DE/DX =   -0.0001              !
 ! A2    A(2,1,10)             110.8324         -DE/DX =   -0.0001              !
 ! A3    A(2,1,11)             113.0105         -DE/DX =    0.0                 !
 ! A4    A(9,1,10)             106.1814         -DE/DX =    0.0001              !
 ! A5    A(9,1,11)             107.8426         -DE/DX =    0.0                 !
 ! A6    A(10,1,11)            107.8426         -DE/DX =    0.0                 !
 ! A7    A(1,2,3)              122.5833         -DE/DX =   -0.0001              !
 ! A8    A(1,2,7)              120.0487         -DE/DX =    0.0                 !
 ! A9    A(3,2,7)              117.368          -DE/DX =    0.0001              !
 ! A10   A(2,3,4)              120.9632         -DE/DX =    0.0                 !
 ! A11   A(2,3,12)             119.5909         -DE/DX =    0.0001              !
 ! A12   A(4,3,12)             119.4459         -DE/DX =    0.0                 !
 ! A13   A(3,4,5)              120.39           -DE/DX =    0.0                 !
 ! A14   A(3,4,13)             119.5335         -DE/DX =    0.0                 !
 ! A15   A(5,4,13)             120.0765         -DE/DX =    0.0                 !
 ! A16   A(4,5,6)              120.3102         -DE/DX =    0.0                 !
 ! A17   A(4,5,14)             120.1788         -DE/DX =    0.0                 !
 ! A18   A(6,5,14)             119.511          -DE/DX =    0.0                 !
 ! A19   A(5,6,7)              118.443          -DE/DX =    0.0                 !
 ! A20   A(5,6,15)             120.5244         -DE/DX =   -0.0001              !
 ! A21   A(7,6,15)             121.0325         -DE/DX =    0.0                 !
 ! A22   A(2,7,6)              122.5255         -DE/DX =   -0.0001              !
 ! A23   A(2,7,8)              115.4091         -DE/DX =    0.0                 !
 ! A24   A(6,7,8)              122.0654         -DE/DX =    0.0                 !
 ! A25   A(7,8,16)             111.6261         -DE/DX =    0.0001              !
 ! D1    D(9,1,2,3)            121.183          -DE/DX =    0.0                 !
 ! D2    D(9,1,2,7)            -58.817          -DE/DX =    0.0                 !
 ! D3    D(10,1,2,3)          -121.1833         -DE/DX =    0.0                 !
 ! D4    D(10,1,2,7)            58.8167         -DE/DX =    0.0                 !
 ! D5    D(11,1,2,3)            -0.0002         -DE/DX =    0.0                 !
 ! D6    D(11,1,2,7)           179.9998         -DE/DX =    0.0                 !
 ! D7    D(1,2,3,4)           -180.0            -DE/DX =    0.0                 !
 ! D8    D(1,2,3,12)             0.0            -DE/DX =    0.0                 !
 ! D9    D(7,2,3,4)              0.0            -DE/DX =    0.0                 !
 ! D10   D(7,2,3,12)           180.0            -DE/DX =    0.0                 !
 ! D11   D(1,2,7,6)            180.0            -DE/DX =    0.0                 !
 ! D12   D(1,2,7,8)              0.0            -DE/DX =    0.0                 !
 ! D13   D(3,2,7,6)              0.0            -DE/DX =    0.0                 !
 ! D14   D(3,2,7,8)            180.0            -DE/DX =    0.0                 !
 ! D15   D(2,3,4,5)              0.0            -DE/DX =    0.0                 !
 ! D16   D(2,3,4,13)          -180.0            -DE/DX =    0.0                 !
 ! D17   D(12,3,4,5)          -180.0            -DE/DX =    0.0                 !
 ! D18   D(12,3,4,13)            0.0            -DE/DX =    0.0                 !
 ! D19   D(3,4,5,6)              0.0            -DE/DX =    0.0                 !
 ! D20   D(3,4,5,14)           180.0            -DE/DX =    0.0                 !
 ! D21   D(13,4,5,6)           180.0            -DE/DX =    0.0                 !
 ! D22   D(13,4,5,14)            0.0            -DE/DX =    0.0                 !
 ! D23   D(4,5,6,7)              0.0            -DE/DX =    0.0                 !
 ! D24   D(4,5,6,15)           180.0            -DE/DX =    0.0                 !
 ! D25   D(14,5,6,7)           180.0            -DE/DX =    0.0                 !
 ! D26   D(14,5,6,15)            0.0            -DE/DX =    0.0                 !
 ! D27   D(5,6,7,2)              0.0            -DE/DX =    0.0                 !
 ! D28   D(5,6,7,8)            180.0            -DE/DX =    0.0                 !
 ! D29   D(15,6,7,2)          -180.0            -DE/DX =    0.0                 !
 ! D30   D(15,6,7,8)             0.0            -DE/DX =    0.0                 !
 ! D31   D(2,7,8,16)          -180.0            -DE/DX =    0.0                 !
 ! D32   D(6,7,8,16)             0.0            -DE/DX =    0.0                 !
 --------------------------------------------------------------------------------
 GradGradGradGradGradGradGradGradGradGradGradGradGradGradGradGradGradGrad

                          Input orientation:                          
 ---------------------------------------------------------------------
 Center     Atomic      Atomic             Coordinates (Angstroms)
 Number     Number       Type             X           Y           Z
 ---------------------------------------------------------------------
      1          6           0        2.158620    0.466937   -0.050280
      2          6           0        0.676460    0.318691   -0.039800
      3          6           0       -0.188632    1.402956   -0.196997
      4          6           0       -1.580329    1.224272   -0.181648
      5          6           0       -2.126489   -0.047067   -0.008067
      6          6           0       -1.290956   -1.159246    0.152821
      7          6           0        0.092459   -0.960756    0.134653
      8          8           0        0.983584   -2.002311    0.286072
      9          1           0        2.595498    0.102301    0.892976
     10          1           0        2.607504   -0.141078   -0.851764
     11          1           0        2.484381    1.503273   -0.192601
     12          1           0        0.221583    2.403252   -0.333707
     13          1           0       -2.232800    2.085414   -0.306259
     14          1           0       -3.207108   -0.181802    0.003292
     15          1           0       -1.711953   -2.149488    0.288054
     16          1           0        0.518178   -2.865346    0.403254
 ---------------------------------------------------------------------
                    Distance matrix (angstroms):
                    1          2          3          4          5
     1  C    0.000000
     2  C    1.489592   0.000000
     3  C    2.531255   1.395968   0.000000
     4  C    3.817140   2.435836   1.403205   0.000000
     5  C    4.316033   2.826890   2.427663   1.394533   0.000000
     6  C    3.819070   2.468223   2.811115   2.424204   1.400336
     7  C    2.518239   1.417207   2.403360   2.769948   2.403939
     8  O    2.755181   2.363804   3.633633   4.147681   3.685384
     9  H    1.101614   2.144669   3.260541   4.455466   4.809506
    10  H    1.101614   2.144669   3.260543   4.455467   4.809506
    11  H    1.095613   2.166832   2.674899   4.074289   4.868031
    12  H    2.753500   2.153762   1.089751   2.158704   3.409332
    13  H    4.687170   3.414104   2.157848   1.087571   2.155851
    14  H    5.405069   3.915923   3.415080   2.158161   1.089046
    15  H    4.684174   3.450205   3.895592   3.408842   2.163262
    16  H    3.741771   3.218609   4.367870   4.633662   3.886662
                    6          7          8          9         10
     6  C    0.000000
     7  C    1.397700   0.000000
     8  O    2.429413   1.379083   0.000000
     9  H    4.152572   2.823181   2.719557   0.000000
    10  H    4.152571   2.823179   2.719553   1.761674   0.000000
    11  H    4.632655   3.449613   3.843259   1.775823   1.775823
    12  H    3.900753   3.398909   4.513730   3.526273   3.526276
    13  H    3.409639   3.857510   5.235024   5.355685   5.355687
    14  H    2.156245   3.392811   4.577785   5.877286   5.877286
    15  H    1.084484   2.166222   2.699553   4.898022   4.898020
    16  H    2.499292   1.969987   0.987504   3.655409   3.655405
                   11         12         13         14         15
    11  H    0.000000
    12  H    2.439289   0.000000
    13  H    4.754325   2.475030   0.000000
    14  H    5.938931   4.307203   2.487040   0.000000
    15  H    5.584166   4.985237   4.308002   2.487642   0.000000
    16  H    4.827611   5.328152   5.708004   4.608593   2.345039
                   16
    16  H    0.000000
 Stoichiometry    C7H8O
 Framework group  C1[X(C7H8O)]
 Deg. of freedom    42
 Full point group                 C1      NOp   1
 Largest Abelian subgroup         C1      NOp   1
 Largest concise Abelian subgroup C1      NOp   1
                         Standard orientation:                         
 ---------------------------------------------------------------------
 Center     Atomic      Atomic             Coordinates (Angstroms)
 Number     Number       Type             X           Y           Z
 ---------------------------------------------------------------------
      1          6           0       -1.971794   -1.213170   -0.000000
      2          6           0       -0.592319   -0.651090   -0.000000
      3          6           0        0.547717   -1.456723    0.000000
      4          6           0        1.831702   -0.890713    0.000000
      5          6           0        1.992010    0.494575    0.000000
      6          6           0        0.872347    1.335585    0.000000
      7          6           0       -0.398027    0.752736    0.000000
      8          8           0       -1.550821    1.509660    0.000000
      9          1           0       -2.535763   -0.867314    0.880838
     10          1           0       -2.535765   -0.867309   -0.880835
     11          1           0       -1.987885   -2.308665   -0.000003
     12          1           0        0.440297   -2.541167    0.000000
     13          1           0        2.703945   -1.540331   -0.000000
     14          1           0        2.990140    0.930187    0.000000
     15          1           0        0.992986    2.413338    0.000000
     16          1           0       -1.351195    2.476777   -0.000001
 ---------------------------------------------------------------------
 Rotational constants (GHZ):           3.2574074           2.1958369           1.3223825

 **********************************************************************

            Population analysis using the SCF density.

 **********************************************************************

 Orbital symmetries:
       Occupied  (A) (A) (A) (A) (A) (A) (A) (A) (A) (A) (A) (A)
                 (A) (A) (A) (A) (A) (A) (A) (A) (A)
       Virtual   (A) (A) (A) (A) (A) (A) (A) (A) (A) (A) (A) (A)
                 (A) (A) (A) (A) (A) (A) (A)
 The electronic state is 1-A.
 Alpha  occ. eigenvalues --   -1.13224  -1.09340  -1.00060  -0.94025  -0.88444
 Alpha  occ. eigenvalues --   -0.80916  -0.75201  -0.67963  -0.61168  -0.59130
 Alpha  occ. eigenvalues --   -0.54806  -0.54787  -0.52112  -0.50796  -0.49416
 Alpha  occ. eigenvalues --   -0.48644  -0.44923  -0.44635  -0.43911  -0.35504
 Alpha  occ. eigenvalues --   -0.32555
 Alpha virt. eigenvalues --    0.00866   0.01544   0.08707   0.09532   0.14428
 Alpha virt. eigenvalues --    0.15048   0.16805   0.18008   0.18178   0.18450
 Alpha virt. eigenvalues --    0.19846   0.20728   0.21374   0.21391   0.21652
 Alpha virt. eigenvalues --    0.22404   0.22806   0.23048   0.24979
          Condensed to atoms (all electrons):
               1          2          3          4          5          6
     1  C    4.456516   0.000000   0.000000   0.000000   0.000000   0.000000
     2  C    0.000000   4.025702   0.000000   0.000000   0.000000   0.000000
     3  C    0.000000   0.000000   4.118098   0.000000   0.000000   0.000000
     4  C    0.000000   0.000000   0.000000   4.216225   0.000000   0.000000
     5  C    0.000000   0.000000   0.000000   0.000000   4.057971   0.000000
     6  C    0.000000   0.000000   0.000000   0.000000   0.000000   4.335362
     7  C    0.000000   0.000000   0.000000   0.000000   0.000000   0.000000
     8  O    0.000000   0.000000   0.000000   0.000000   0.000000   0.000000
     9  H    0.000000   0.000000   0.000000   0.000000   0.000000   0.000000
    10  H    0.000000   0.000000   0.000000   0.000000   0.000000   0.000000
    11  H    0.000000   0.000000   0.000000   0.000000   0.000000   0.000000
    12  H    0.000000   0.000000   0.000000   0.000000   0.000000   0.000000
    13  H    0.000000   0.000000   0.000000   0.000000   0.000000   0.000000
    14  H    0.000000   0.000000   0.000000   0.000000   0.000000   0.000000
    15  H    0.000000   0.000000   0.000000   0.000000   0.000000   0.000000
    16  H    0.000000   0.000000   0.000000   0.000000   0.000000   0.000000
               7          8          9         10         11         12
     1  C    0.000000   0.000000   0.000000   0.000000   0.000000   0.000000
     2  C    0.000000   0.000000   0.000000   0.000000   0.000000   0.000000
     3  C    0.000000   0.000000   0.000000   0.000000   0.000000   0.000000
     4  C    0.000000   0.000000   0.000000   0.000000   0.000000   0.000000
     5  C    0.000000   0.000000   0.000000   0.000000   0.000000   0.000000
     6  C    0.000000   0.000000   0.000000   0.000000   0.000000   0.000000
     7  C    3.732433   0.000000   0.000000   0.000000   0.000000   0.000000
     8  O    0.000000   6.474267   0.000000   0.000000   0.000000   0.000000
     9  H    0.000000   0.000000   0.830527   0.000000   0.000000   0.000000
    10  H    0.000000   0.000000   0.000000   0.830527   0.000000   0.000000
    11  H    0.000000   0.000000   0.000000   0.000000   0.845574   0.000000
    12  H    0.000000   0.000000   0.000000   0.000000   0.000000   0.850776
    13  H    0.000000   0.000000   0.000000   0.000000   0.000000   0.000000
    14  H    0.000000   0.000000   0.000000   0.000000   0.000000   0.000000
    15  H    0.000000   0.000000   0.000000   0.000000   0.000000   0.000000
    16  H    0.000000   0.000000   0.000000   0.000000   0.000000   0.000000
              13         14         15         16
     1  C    0.000000   0.000000   0.000000   0.000000
     2  C    0.000000   0.000000   0.000000   0.000000
     3  C    0.000000   0.000000   0.000000   0.000000
     4  C    0.000000   0.000000   0.000000   0.000000
     5  C    0.000000   0.000000   0.000000   0.000000
     6  C    0.000000   0.000000   0.000000   0.000000
     7  C    0.000000   0.000000   0.000000   0.000000
     8  O    0.000000   0.000000   0.000000   0.000000
     9  H    0.000000   0.000000   0.000000   0.000000
    10  H    0.000000   0.000000   0.000000   0.000000
    11  H    0.000000   0.000000   0.000000   0.000000
    12  H    0.000000   0.000000   0.000000   0.000000
    13  H    0.847988   0.000000   0.000000   0.000000
    14  H    0.000000   0.859903   0.000000   0.000000
    15  H    0.000000   0.000000   0.837744   0.000000
    16  H    0.000000   0.000000   0.000000   0.680387
 Mulliken charges:
               1
     1  C   -0.456516
     2  C   -0.025702
     3  C   -0.118098
     4  C   -0.216225
     5  C   -0.057971
     6  C   -0.335362
     7  C    0.267567
     8  O   -0.474267
     9  H    0.169473
    10  H    0.169473
    11  H    0.154426
    12  H    0.149224
    13  H    0.152012
    14  H    0.140097
    15  H    0.162256
    16  H    0.319613
 Sum of Mulliken charges =  -0.00000
 Mulliken charges with hydrogens summed into heavy atoms:
               1
     1  C    0.036856
     2  C   -0.025702
     3  C    0.031125
     4  C   -0.064213
     5  C    0.082126
     6  C   -0.173106
     7  C    0.267567
     8  O   -0.154654
 Charge=             -0.0000 electrons
 Dipole moment (field-independent basis, Debye):
    X=              0.4098    Y=              0.5880    Z=             -0.0000  Tot=              0.7167
 N-N= 2.062891385256D+02 E-N=-3.108445880774D+02  KE=-7.459432807201D+01
 1\1\GINC-MACMINIM12022MAC-MINI-2\FOpt\RPM6\ZDO\C7H8O1\MACMINI_M1_2022\
 27-May-2024\0\\# opt pm6\\Smiles:Cc1ccccc1O\\0,1\C,2.1586199368,0.4669
 366449,-0.0502803758\C,0.6764599143,0.3186912509,-0.0397999524\C,-0.18
 86323525,1.4029561835,-0.1969972664\C,-1.5803294062,1.2242723899,-0.18
 16484859\C,-2.1264886075,-0.0470666747,-0.0080665254\C,-1.2909561447,-
 1.1592458625,0.1528212143\C,0.0924585815,-0.960755849,0.1346526618\O,0
 .9835844373,-2.0023109621,0.2860716113\H,2.5954982407,0.1023012779,0.8
 929760212\H,2.6075039525,-0.1410782926,-0.8517635422\H,2.4843812048,1.
 5032729807,-0.1926008894\H,0.221582964,2.4032522665,-0.3337065814\H,-2
 .2328003509,2.0854136672,-0.3062591961\H,-3.2071080717,-0.1818023504,0
 .0032923547\H,-1.7119532235,-2.1494876933,0.2880539999\H,0.518177925,-
 2.8653459777,0.4032539462\\Version=EM64M-G16RevA.03\State=1-A\HF=-0.04
 59351\RMSD=1.208e-09\RMSF=7.199e-05\Dipole=-0.2201551,-0.1746948,0.022
 8531\PG=C01 [X(C7H8O1)]\\@


      SCIENCE SANS CONSCIENCE N'EST QUE RUINE DE L'AME.

                                                  -- RABELAIS
 Job cpu time:       0 days  0 hours  0 minutes  2.5 seconds.
 Elapsed time:       0 days  0 hours  0 minutes  2.0 seconds.
 File lengths (MBytes):  RWF=      6 Int=      0 D2E=      0 Chk=      2 Scr=      1
 Normal termination of Gaussian 16 at Mon May 27 12:01:37 2024.
