 Entering Gaussian System, Link 0=g16
 Input=/Users/macmini_m1_2022/Poclab/ichizawa/Gaussian/20240527_1_500/3_#_opt_freq_b3lyp_6-31G_d_geom_allcheck_guess_read.gjf
 Output=/Users/macmini_m1_2022/Poclab/ichizawa/Gaussian/20240527_1_500/3_#_opt_freq_b3lyp_6-31G_d_geom_allcheck_guess_read.log
 Initial command:
 /Applications/g16/l1.exe "/Users/macmini_m1_2022/Poclab/ichizawa/Gaussian/20240527_1_500/Gau-63126.inp" -scrdir="/Users/macmini_m1_2022/Poclab/ichizawa/Gaussian/20240527_1_500/"
 Entering Link 1 = /Applications/g16/l1.exe PID=     63127.
  
 Copyright (c) 1988,1990,1992,1993,1995,1998,2003,2009,2016,
            Gaussian, Inc.  All Rights Reserved.
  
 This is part of the Gaussian(R) 16 program.  It is based on
 the Gaussian(R) 09 system (copyright 2009, Gaussian, Inc.),
 the Gaussian(R) 03 system (copyright 2003, Gaussian, Inc.),
 the Gaussian(R) 98 system (copyright 1998, Gaussian, Inc.),
 the Gaussian(R) 94 system (copyright 1995, Gaussian, Inc.),
 the Gaussian 92(TM) system (copyright 1992, Gaussian, Inc.),
 the Gaussian 90(TM) system (copyright 1990, Gaussian, Inc.),
 the Gaussian 88(TM) system (copyright 1988, Gaussian, Inc.),
 the Gaussian 86(TM) system (copyright 1986, Carnegie Mellon
 University), and the Gaussian 82(TM) system (copyright 1983,
 Carnegie Mellon University). Gaussian is a federally registered
 trademark of Gaussian, Inc.
  
 This software contains proprietary and confidential information,
 including trade secrets, belonging to Gaussian, Inc.
  
 This software is provided under written license and may be
 used, copied, transmitted, or stored only in accord with that
 written license.
  
 The following legend is applicable only to US Government
 contracts under FAR:
  
                    RESTRICTED RIGHTS LEGEND
  
 Use, reproduction and disclosure by the US Government is
 subject to restrictions as set forth in subparagraphs (a)
 and (c) of the Commercial Computer Software - Restricted
 Rights clause in FAR 52.227-19.
  
 Gaussian, Inc.
 340 Quinnipiac St., Bldg. 40, Wallingford CT 06492
  
  
 ---------------------------------------------------------------
 Warning -- This program may not be used in any manner that
 competes with the business of Gaussian, Inc. or will provide
 assistance to any competitor of Gaussian, Inc.  The licensee
 of this program is prohibited from giving any competitor of
 Gaussian, Inc. access to this program.  By using this program,
 the user acknowledges that Gaussian, Inc. is engaged in the
 business of creating and licensing software in the field of
 computational chemistry and represents and warrants to the
 licensee that it is not a competitor of Gaussian, Inc. and that
 it will not use this program in any manner prohibited above.
 ---------------------------------------------------------------
  

 Cite this work as:
 Gaussian 16, Revision A.03,
 M. J. Frisch, G. W. Trucks, H. B. Schlegel, G. E. Scuseria, 
 M. A. Robb, J. R. Cheeseman, G. Scalmani, V. Barone, 
 G. A. Petersson, H. Nakatsuji, X. Li, M. Caricato, A. V. Marenich, 
 J. Bloino, B. G. Janesko, R. Gomperts, B. Mennucci, H. P. Hratchian, 
 J. V. Ortiz, A. F. Izmaylov, J. L. Sonnenberg, D. Williams-Young, 
 F. Ding, F. Lipparini, F. Egidi, J. Goings, B. Peng, A. Petrone, 
 T. Henderson, D. Ranasinghe, V. G. Zakrzewski, J. Gao, N. Rega, 
 G. Zheng, W. Liang, M. Hada, M. Ehara, K. Toyota, R. Fukuda, 
 J. Hasegawa, M. Ishida, T. Nakajima, Y. Honda, O. Kitao, H. Nakai, 
 T. Vreven, K. Throssell, J. A. Montgomery, Jr., J. E. Peralta, 
 F. Ogliaro, M. J. Bearpark, J. J. Heyd, E. N. Brothers, K. N. Kudin, 
 V. N. Staroverov, T. A. Keith, R. Kobayashi, J. Normand, 
 K. Raghavachari, A. P. Rendell, J. C. Burant, S. S. Iyengar, 
 J. Tomasi, M. Cossi, J. M. Millam, M. Klene, C. Adamo, R. Cammi, 
 J. W. Ochterski, R. L. Martin, K. Morokuma, O. Farkas, 
 J. B. Foresman, and D. J. Fox, Gaussian, Inc., Wallingford CT, 2016.
 
 ******************************************
 Gaussian 16:  EM64M-G16RevA.03 25-Dec-2016
                27-May-2024 
 ******************************************
 %Mem=16GB
 %Nprocshared=10
 Will use up to   10 processors via shared memory.
 %oldchk=3_#_opt_pm6_MMFF.chk
 %chk=3_#_opt_freq_b3lyp_6-31G_d_geom_allcheck_guess_read.chk
 Copying data from "3_#_opt_pm6_MMFF.chk" to current chk file "3_#_opt_freq_b3lyp_6-31G_d_geom_allcheck_guess_read.chk"
 IOpt=  2 FromEx=T IUOpen= 4 IOptOp= 5 NList=   0 IFRang= 0 IUIn= 4 IUOut= 2.
 --------------------------------------------------
 # opt freq b3lyp/6-31G(d) geom=allcheck guess=read
 --------------------------------------------------
 1/18=20,19=15,26=3,29=7,38=1/1,3;
 2/9=110,12=2,40=1/2;
 3/5=1,6=6,7=1,11=2,14=-4,25=1,30=1,71=1,74=-5,116=-2/1,2,3;
 4/5=1/1;
 5/5=2,38=6/2;
 6/7=2,8=2,9=2,10=2,28=1/1;
 7//1,2,3,16;
 1/18=20,19=15,26=3/3(2);
 2/9=110/2;
 99//99;
 2/9=110/2;
 3/5=1,6=6,7=1,11=2,14=-2,25=1,30=1,71=1,74=-5/1,2,3;
 4/5=5,16=3,69=1/1;
 5/5=2,38=5/2;
 7//1,2,3,16;
 1/18=20,19=15,26=3/3(-5);
 2/9=110/2;
 6/7=2,8=2,9=2,10=2,19=2,28=1/1;
 99/9=1/99;
 Structure from the checkpoint file:  "3_#_opt_freq_b3lyp_6-31G_d_geom_allcheck_guess_read.chk"
 -----------------
 Smiles:Cc1ccccc1O
 -----------------
 Charge =  0 Multiplicity = 1
 Redundant internal coordinates found in file.  (old form).
 C,0,2.1586199368,0.4669366449,-0.0502803758
 C,0,0.6764599143,0.3186912509,-0.0397999524
 C,0,-0.1886323525,1.4029561835,-0.1969972664
 C,0,-1.5803294062,1.2242723899,-0.1816484859
 C,0,-2.1264886075,-0.0470666747,-0.0080665254
 C,0,-1.2909561447,-1.1592458625,0.1528212143
 C,0,0.0924585815,-0.960755849,0.1346526618
 O,0,0.9835844373,-2.0023109621,0.2860716113
 H,0,2.5954982407,0.1023012779,0.8929760212
 H,0,2.6075039525,-0.1410782926,-0.8517635422
 H,0,2.4843812048,1.5032729807,-0.1926008894
 H,0,0.221582964,2.4032522665,-0.3337065814
 H,0,-2.2328003509,2.0854136672,-0.3062591961
 H,0,-3.2071080717,-0.1818023504,0.0032923547
 H,0,-1.7119532235,-2.1494876933,0.2880539999
 H,0,0.518177925,-2.8653459777,0.4032539462
 Recover connectivity data from disk.

 GradGradGradGradGradGradGradGradGradGradGradGradGradGradGradGradGradGrad
 Berny optimization.
 Initialization pass.
                           ----------------------------
                           !    Initial Parameters    !
                           ! (Angstroms and Degrees)  !
 --------------------------                            --------------------------
 ! Name  Definition              Value          Derivative Info.                !
 --------------------------------------------------------------------------------
 ! R1    R(1,2)                  1.4896         estimate D2E/DX2                !
 ! R2    R(1,9)                  1.1016         estimate D2E/DX2                !
 ! R3    R(1,10)                 1.1016         estimate D2E/DX2                !
 ! R4    R(1,11)                 1.0956         estimate D2E/DX2                !
 ! R5    R(2,3)                  1.396          estimate D2E/DX2                !
 ! R6    R(2,7)                  1.4172         estimate D2E/DX2                !
 ! R7    R(3,4)                  1.4032         estimate D2E/DX2                !
 ! R8    R(3,12)                 1.0898         estimate D2E/DX2                !
 ! R9    R(4,5)                  1.3945         estimate D2E/DX2                !
 ! R10   R(4,13)                 1.0876         estimate D2E/DX2                !
 ! R11   R(5,6)                  1.4003         estimate D2E/DX2                !
 ! R12   R(5,14)                 1.089          estimate D2E/DX2                !
 ! R13   R(6,7)                  1.3977         estimate D2E/DX2                !
 ! R14   R(6,15)                 1.0845         estimate D2E/DX2                !
 ! R15   R(7,8)                  1.3791         estimate D2E/DX2                !
 ! R16   R(8,16)                 0.9875         estimate D2E/DX2                !
 ! A1    A(2,1,9)              110.8324         estimate D2E/DX2                !
 ! A2    A(2,1,10)             110.8324         estimate D2E/DX2                !
 ! A3    A(2,1,11)             113.0105         estimate D2E/DX2                !
 ! A4    A(9,1,10)             106.1814         estimate D2E/DX2                !
 ! A5    A(9,1,11)             107.8426         estimate D2E/DX2                !
 ! A6    A(10,1,11)            107.8426         estimate D2E/DX2                !
 ! A7    A(1,2,3)              122.5833         estimate D2E/DX2                !
 ! A8    A(1,2,7)              120.0487         estimate D2E/DX2                !
 ! A9    A(3,2,7)              117.368          estimate D2E/DX2                !
 ! A10   A(2,3,4)              120.9632         estimate D2E/DX2                !
 ! A11   A(2,3,12)             119.5909         estimate D2E/DX2                !
 ! A12   A(4,3,12)             119.4459         estimate D2E/DX2                !
 ! A13   A(3,4,5)              120.39           estimate D2E/DX2                !
 ! A14   A(3,4,13)             119.5335         estimate D2E/DX2                !
 ! A15   A(5,4,13)             120.0765         estimate D2E/DX2                !
 ! A16   A(4,5,6)              120.3102         estimate D2E/DX2                !
 ! A17   A(4,5,14)             120.1788         estimate D2E/DX2                !
 ! A18   A(6,5,14)             119.511          estimate D2E/DX2                !
 ! A19   A(5,6,7)              118.443          estimate D2E/DX2                !
 ! A20   A(5,6,15)             120.5244         estimate D2E/DX2                !
 ! A21   A(7,6,15)             121.0325         estimate D2E/DX2                !
 ! A22   A(2,7,6)              122.5255         estimate D2E/DX2                !
 ! A23   A(2,7,8)              115.4091         estimate D2E/DX2                !
 ! A24   A(6,7,8)              122.0654         estimate D2E/DX2                !
 ! A25   A(7,8,16)             111.6261         estimate D2E/DX2                !
 ! D1    D(9,1,2,3)            121.183          estimate D2E/DX2                !
 ! D2    D(9,1,2,7)            -58.817          estimate D2E/DX2                !
 ! D3    D(10,1,2,3)          -121.1833         estimate D2E/DX2                !
 ! D4    D(10,1,2,7)            58.8167         estimate D2E/DX2                !
 ! D5    D(11,1,2,3)            -0.0002         estimate D2E/DX2                !
 ! D6    D(11,1,2,7)           179.9998         estimate D2E/DX2                !
 ! D7    D(1,2,3,4)           -180.0            estimate D2E/DX2                !
 ! D8    D(1,2,3,12)             0.0            estimate D2E/DX2                !
 ! D9    D(7,2,3,4)              0.0            estimate D2E/DX2                !
 ! D10   D(7,2,3,12)           180.0            estimate D2E/DX2                !
 ! D11   D(1,2,7,6)            180.0            estimate D2E/DX2                !
 ! D12   D(1,2,7,8)              0.0            estimate D2E/DX2                !
 ! D13   D(3,2,7,6)              0.0            estimate D2E/DX2                !
 ! D14   D(3,2,7,8)           -180.0            estimate D2E/DX2                !
 ! D15   D(2,3,4,5)              0.0            estimate D2E/DX2                !
 ! D16   D(2,3,4,13)          -180.0            estimate D2E/DX2                !
 ! D17   D(12,3,4,5)          -180.0            estimate D2E/DX2                !
 ! D18   D(12,3,4,13)            0.0            estimate D2E/DX2                !
 ! D19   D(3,4,5,6)              0.0            estimate D2E/DX2                !
 ! D20   D(3,4,5,14)           180.0            estimate D2E/DX2                !
 ! D21   D(13,4,5,6)           180.0            estimate D2E/DX2                !
 ! D22   D(13,4,5,14)            0.0            estimate D2E/DX2                !
 ! D23   D(4,5,6,7)              0.0            estimate D2E/DX2                !
 ! D24   D(4,5,6,15)           180.0            estimate D2E/DX2                !
 ! D25   D(14,5,6,7)           180.0            estimate D2E/DX2                !
 ! D26   D(14,5,6,15)            0.0            estimate D2E/DX2                !
 ! D27   D(5,6,7,2)              0.0            estimate D2E/DX2                !
 ! D28   D(5,6,7,8)            180.0            estimate D2E/DX2                !
 ! D29   D(15,6,7,2)          -180.0            estimate D2E/DX2                !
 ! D30   D(15,6,7,8)             0.0            estimate D2E/DX2                !
 ! D31   D(2,7,8,16)          -180.0            estimate D2E/DX2                !
 ! D32   D(6,7,8,16)             0.0            estimate D2E/DX2                !
 --------------------------------------------------------------------------------
 Trust Radius=3.00D-01 FncErr=1.00D-07 GrdErr=1.00D-06 EigMax=2.50D+02 EigMin=1.00D-04
 Number of steps in this run=     83 maximum allowed number of steps=    100.
 GradGradGradGradGradGradGradGradGradGradGradGradGradGradGradGradGradGrad

                          Input orientation:                          
 ---------------------------------------------------------------------
 Center     Atomic      Atomic             Coordinates (Angstroms)
 Number     Number       Type             X           Y           Z
 ---------------------------------------------------------------------
      1          6           0        2.158620    0.466937   -0.050280
      2          6           0        0.676460    0.318691   -0.039800
      3          6           0       -0.188632    1.402956   -0.196997
      4          6           0       -1.580329    1.224272   -0.181648
      5          6           0       -2.126489   -0.047067   -0.008067
      6          6           0       -1.290956   -1.159246    0.152821
      7          6           0        0.092459   -0.960756    0.134653
      8          8           0        0.983584   -2.002311    0.286072
      9          1           0        2.595498    0.102301    0.892976
     10          1           0        2.607504   -0.141078   -0.851764
     11          1           0        2.484381    1.503273   -0.192601
     12          1           0        0.221583    2.403252   -0.333707
     13          1           0       -2.232800    2.085414   -0.306259
     14          1           0       -3.207108   -0.181802    0.003292
     15          1           0       -1.711953   -2.149488    0.288054
     16          1           0        0.518178   -2.865346    0.403254
 ---------------------------------------------------------------------
                    Distance matrix (angstroms):
                    1          2          3          4          5
     1  C    0.000000
     2  C    1.489592   0.000000
     3  C    2.531255   1.395968   0.000000
     4  C    3.817140   2.435836   1.403205   0.000000
     5  C    4.316033   2.826890   2.427663   1.394533   0.000000
     6  C    3.819070   2.468223   2.811115   2.424204   1.400336
     7  C    2.518239   1.417207   2.403360   2.769948   2.403939
     8  O    2.755181   2.363804   3.633633   4.147681   3.685384
     9  H    1.101614   2.144669   3.260541   4.455466   4.809506
    10  H    1.101614   2.144669   3.260543   4.455467   4.809506
    11  H    1.095613   2.166832   2.674899   4.074289   4.868031
    12  H    2.753500   2.153762   1.089751   2.158704   3.409332
    13  H    4.687170   3.414104   2.157848   1.087571   2.155851
    14  H    5.405069   3.915923   3.415080   2.158161   1.089046
    15  H    4.684174   3.450205   3.895592   3.408842   2.163262
    16  H    3.741771   3.218609   4.367870   4.633662   3.886662
                    6          7          8          9         10
     6  C    0.000000
     7  C    1.397700   0.000000
     8  O    2.429413   1.379083   0.000000
     9  H    4.152572   2.823181   2.719557   0.000000
    10  H    4.152571   2.823179   2.719553   1.761674   0.000000
    11  H    4.632655   3.449613   3.843259   1.775823   1.775823
    12  H    3.900753   3.398909   4.513730   3.526273   3.526276
    13  H    3.409639   3.857510   5.235024   5.355685   5.355687
    14  H    2.156245   3.392811   4.577785   5.877286   5.877286
    15  H    1.084484   2.166222   2.699553   4.898022   4.898020
    16  H    2.499292   1.969987   0.987504   3.655409   3.655405
                   11         12         13         14         15
    11  H    0.000000
    12  H    2.439289   0.000000
    13  H    4.754325   2.475030   0.000000
    14  H    5.938931   4.307203   2.487040   0.000000
    15  H    5.584166   4.985237   4.308002   2.487642   0.000000
    16  H    4.827611   5.328152   5.708004   4.608593   2.345039
                   16
    16  H    0.000000
 Stoichiometry    C7H8O
 Framework group  C1[X(C7H8O)]
 Deg. of freedom    42
 Full point group                 C1      NOp   1
 Largest Abelian subgroup         C1      NOp   1
 Largest concise Abelian subgroup C1      NOp   1
                         Standard orientation:                         
 ---------------------------------------------------------------------
 Center     Atomic      Atomic             Coordinates (Angstroms)
 Number     Number       Type             X           Y           Z
 ---------------------------------------------------------------------
      1          6           0       -1.971794   -1.213170   -0.000000
      2          6           0       -0.592319   -0.651090   -0.000000
      3          6           0        0.547717   -1.456723    0.000000
      4          6           0        1.831702   -0.890713    0.000000
      5          6           0        1.992010    0.494575    0.000000
      6          6           0        0.872347    1.335585    0.000000
      7          6           0       -0.398027    0.752736    0.000000
      8          8           0       -1.550821    1.509660    0.000000
      9          1           0       -2.535763   -0.867314    0.880838
     10          1           0       -2.535765   -0.867309   -0.880835
     11          1           0       -1.987885   -2.308665   -0.000003
     12          1           0        0.440297   -2.541167    0.000000
     13          1           0        2.703945   -1.540331   -0.000000
     14          1           0        2.990140    0.930187    0.000000
     15          1           0        0.992986    2.413338    0.000000
     16          1           0       -1.351195    2.476777   -0.000001
 ---------------------------------------------------------------------
 Rotational constants (GHZ):           3.2574074           2.1958369           1.3223825
 Standard basis: 6-31G(d) (6D, 7F)
 There are   136 symmetry adapted cartesian basis functions of A   symmetry.
 There are   136 symmetry adapted basis functions of A   symmetry.
   136 basis functions,   256 primitive gaussians,   136 cartesian basis functions
    29 alpha electrons       29 beta electrons
       nuclear repulsion energy       347.1093893205 Hartrees.
 NAtoms=   16 NActive=   16 NUniq=   16 SFac= 1.00D+00 NAtFMM=   60 NAOKFM=F Big=F
 Integral buffers will be    131072 words long.
 Raffenetti 2 integral format.
 Two-electron integral symmetry is turned on.
 One-electron integrals computed using PRISM.
 NBasis=   136 RedAO= T EigKep=  4.42D-04  NBF=   136
 NBsUse=   136 1.00D-06 EigRej= -1.00D+00 NBFU=   136
 Initial guess from the checkpoint file:  "3_#_opt_freq_b3lyp_6-31G_d_geom_allcheck_guess_read.chk"
 B after Tr=    -0.000000   -0.000000   -0.000000
         Rot=    1.000000   -0.000000    0.000000   -0.000000 Ang=   0.00 deg.
 Requested convergence on RMS density matrix=1.00D-08 within 128 cycles.
 Requested convergence on MAX density matrix=1.00D-06.
 Requested convergence on             energy=1.00D-06.
 No special actions if energy rises.
 EnCoef did     4 forward-backward iterations
 EnCoef did     2 forward-backward iterations
 SCF Done:  E(RB3LYP) =  -346.782202708     A.U. after   20 cycles
            NFock= 20  Conv=0.30D-08     -V/T= 2.0099

 **********************************************************************

            Population analysis using the SCF density.

 **********************************************************************

 Orbital symmetries:
       Occupied  (A) (A) (A) (A) (A) (A) (A) (A) (A) (A) (A) (A)
                 (A) (A) (A) (A) (A) (A) (A) (A) (A) (A) (A) (A)
                 (A) (A) (A) (A) (A)
       Virtual   (A) (A) (A) (A) (A) (A) (A) (A) (A) (A) (A) (A)
                 (A) (A) (A) (A) (A) (A) (A) (A) (A) (A) (A) (A)
                 (A) (A) (A) (A) (A) (A) (A) (A) (A) (A) (A) (A)
                 (A) (A) (A) (A) (A) (A) (A) (A) (A) (A) (A) (A)
                 (A) (A) (A) (A) (A) (A) (A) (A) (A) (A) (A) (A)
                 (A) (A) (A) (A) (A) (A) (A) (A) (A) (A) (A) (A)
                 (A) (A) (A) (A) (A) (A) (A) (A) (A) (A) (A) (A)
                 (A) (A) (A) (A) (A) (A) (A) (A) (A) (A) (A) (A)
                 (A) (A) (A) (A) (A) (A) (A) (A) (A) (A) (A)
 The electronic state is 1-A.
 Alpha  occ. eigenvalues --  -19.17566 -10.24388 -10.18868 -10.18621 -10.18557
 Alpha  occ. eigenvalues --  -10.18338 -10.17757 -10.17491  -1.04729  -0.84306
 Alpha  occ. eigenvalues --   -0.76694  -0.72987  -0.67652  -0.61795  -0.57722
 Alpha  occ. eigenvalues --   -0.53328  -0.47976  -0.46615  -0.43007  -0.42016
 Alpha  occ. eigenvalues --   -0.40776  -0.38731  -0.37669  -0.37479  -0.34515
 Alpha  occ. eigenvalues --   -0.33109  -0.32507  -0.23997  -0.21203
 Alpha virt. eigenvalues --    0.00624   0.01805   0.06347   0.10001   0.12510
 Alpha virt. eigenvalues --    0.14555   0.15502   0.17345   0.17795   0.20131
 Alpha virt. eigenvalues --    0.20679   0.24175   0.25612   0.31527   0.32762
 Alpha virt. eigenvalues --    0.35688   0.36368   0.48930   0.50813   0.52460
 Alpha virt. eigenvalues --    0.53906   0.55869   0.56144   0.59489   0.60104
 Alpha virt. eigenvalues --    0.60839   0.61906   0.62252   0.62604   0.65024
 Alpha virt. eigenvalues --    0.67734   0.70393   0.71927   0.76662   0.77212
 Alpha virt. eigenvalues --    0.79476   0.83674   0.84195   0.85877   0.87265
 Alpha virt. eigenvalues --    0.87915   0.91474   0.93818   0.94673   0.96275
 Alpha virt. eigenvalues --    0.98552   0.99119   1.02205   1.07176   1.09998
 Alpha virt. eigenvalues --    1.11635   1.18598   1.22273   1.25465   1.27158
 Alpha virt. eigenvalues --    1.35540   1.37806   1.41401   1.44301   1.45708
 Alpha virt. eigenvalues --    1.48721   1.49156   1.50653   1.73908   1.74146
 Alpha virt. eigenvalues --    1.77449   1.77990   1.84958   1.87323   1.88381
 Alpha virt. eigenvalues --    1.91719   1.91922   1.96672   1.98671   1.99864
 Alpha virt. eigenvalues --    2.07788   2.09860   2.16366   2.17715   2.23916
 Alpha virt. eigenvalues --    2.27722   2.29165   2.31592   2.32406   2.32470
 Alpha virt. eigenvalues --    2.36197   2.44529   2.52582   2.55503   2.60279
 Alpha virt. eigenvalues --    2.65972   2.69799   2.71563   2.77024   2.80225
 Alpha virt. eigenvalues --    2.86007   2.98918   3.13228   3.41228   3.95869
 Alpha virt. eigenvalues --    4.09267   4.12483   4.17402   4.28000   4.40598
 Alpha virt. eigenvalues --    4.42385   4.74324
          Condensed to atoms (all electrons):
               1          2          3          4          5          6
     1  C    5.212937   0.340149  -0.065909   0.008035  -0.000349   0.010051
     2  C    0.340149   4.734208   0.570573  -0.027362  -0.030577  -0.065803
     3  C   -0.065909   0.570573   4.944642   0.510786  -0.024361  -0.052994
     4  C    0.008035  -0.027362   0.510786   4.890763   0.555534  -0.032017
     5  C   -0.000349  -0.030577  -0.024361   0.555534   4.861648   0.493879
     6  C    0.010051  -0.065803  -0.052994  -0.032017   0.493879   5.120841
     7  C   -0.060760   0.505447  -0.010095  -0.050041  -0.001278   0.476344
     8  O   -0.003446  -0.066950   0.003453   0.000137   0.004311  -0.067699
     9  H    0.363612  -0.027198   0.001037  -0.000170   0.000028  -0.000070
    10  H    0.363612  -0.027198   0.001037  -0.000170   0.000028  -0.000070
    11  H    0.359536  -0.026700  -0.004028   0.000109   0.000007  -0.000137
    12  H   -0.010982  -0.041597   0.353428  -0.046622   0.004956   0.000333
    13  H   -0.000185   0.003800  -0.039740   0.356419  -0.042676   0.004855
    14  H    0.000009   0.000840   0.004477  -0.039836   0.354289  -0.038797
    15  H   -0.000160   0.003884   0.000651   0.004450  -0.035525   0.345300
    16  H   -0.000456   0.008034  -0.000059  -0.000039   0.000446  -0.006594
               7          8          9         10         11         12
     1  C   -0.060760  -0.003446   0.363612   0.363612   0.359536  -0.010982
     2  C    0.505447  -0.066950  -0.027198  -0.027198  -0.026700  -0.041597
     3  C   -0.010095   0.003453   0.001037   0.001037  -0.004028   0.353428
     4  C   -0.050041   0.000137  -0.000170  -0.000170   0.000109  -0.046622
     5  C   -0.001278   0.004311   0.000028   0.000028   0.000007   0.004956
     6  C    0.476344  -0.067699  -0.000070  -0.000070  -0.000137   0.000333
     7  C    4.620465   0.290712  -0.005462  -0.005462   0.004411   0.006174
     8  O    0.290712   8.249061   0.003767   0.003767   0.000336  -0.000057
     9  H   -0.005462   0.003767   0.561346  -0.033355  -0.029074   0.000115
    10  H   -0.005462   0.003767  -0.033355   0.561346  -0.029074   0.000115
    11  H    0.004411   0.000336  -0.029074  -0.029074   0.570848   0.006472
    12  H    0.006174  -0.000057   0.000115   0.000115   0.006472   0.609622
    13  H    0.000904   0.000002   0.000003   0.000003  -0.000011  -0.005469
    14  H    0.003127  -0.000058  -0.000000  -0.000000   0.000000  -0.000192
    15  H   -0.043225  -0.005204  -0.000000  -0.000000   0.000002   0.000016
    16  H   -0.028823   0.238376  -0.000059  -0.000059  -0.000003   0.000006
              13         14         15         16
     1  C   -0.000185   0.000009  -0.000160  -0.000456
     2  C    0.003800   0.000840   0.003884   0.008034
     3  C   -0.039740   0.004477   0.000651  -0.000059
     4  C    0.356419  -0.039836   0.004450  -0.000039
     5  C   -0.042676   0.354289  -0.035525   0.000446
     6  C    0.004855  -0.038797   0.345300  -0.006594
     7  C    0.000904   0.003127  -0.043225  -0.028823
     8  O    0.000002  -0.000058  -0.005204   0.238376
     9  H    0.000003  -0.000000  -0.000000  -0.000059
    10  H    0.000003  -0.000000  -0.000000  -0.000059
    11  H   -0.000011   0.000000   0.000002  -0.000003
    12  H   -0.005469  -0.000192   0.000016   0.000006
    13  H    0.606002  -0.005507  -0.000185  -0.000001
    14  H   -0.005507   0.600912  -0.005697  -0.000013
    15  H   -0.000185  -0.005697   0.611349   0.006714
    16  H   -0.000001  -0.000013   0.006714   0.377498
 Mulliken charges:
               1
     1  C   -0.515695
     2  C    0.146451
     3  C   -0.192898
     4  C   -0.129975
     5  C   -0.140360
     6  C   -0.187419
     7  C    0.297563
     8  O   -0.650508
     9  H    0.165479
    10  H    0.165479
    11  H    0.147304
    12  H    0.123683
    13  H    0.121788
    14  H    0.126447
    15  H    0.117631
    16  H    0.405031
 Sum of Mulliken charges =  -0.00000
 Mulliken charges with hydrogens summed into heavy atoms:
               1
     1  C   -0.037432
     2  C    0.146451
     3  C   -0.069215
     4  C   -0.008187
     5  C   -0.013914
     6  C   -0.069788
     7  C    0.297563
     8  O   -0.245478
 Electronic spatial extent (au):  <R**2>=            902.0345
 Charge=             -0.0000 electrons
 Dipole moment (field-independent basis, Debye):
    X=              0.3251    Y=              1.1429    Z=             -0.0000  Tot=              1.1882
 Quadrupole moment (field-independent basis, Debye-Ang):
   XX=            -46.2680   YY=            -37.6448   ZZ=            -50.0344
   XY=             -0.0927   XZ=              0.0000   YZ=             -0.0000
 Traceless Quadrupole moment (field-independent basis, Debye-Ang):
   XX=             -1.6189   YY=              7.0043   ZZ=             -5.3853
   XY=             -0.0927   XZ=              0.0000   YZ=             -0.0000
 Octapole moment (field-independent basis, Debye-Ang**2):
  XXX=              4.2050  YYY=             25.8037  ZZZ=              0.0000  XYY=             -6.7105
  XXY=              1.0954  XXZ=             -0.0000  XZZ=             -6.5108  YZZ=              2.7410
  YYZ=             -0.0000  XYZ=              0.0000
 Hexadecapole moment (field-independent basis, Debye-Ang**3):
 XXXX=           -654.2909 YYYY=           -376.3885 ZZZZ=            -56.4270 XXXY=             -6.6816
 XXXZ=              0.0000 YYYX=            -35.6796 YYYZ=             -0.0000 ZZZX=             -0.0000
 ZZZY=             -0.0000 XXYY=           -175.5697 XXZZ=           -126.4173 YYZZ=            -92.5781
 XXYZ=             -0.0000 YYXZ=              0.0000 ZZXY=             -3.2438
 N-N= 3.471093893205D+02 E-N=-1.500158660882D+03  KE= 3.433945132907D+02
 Calling FoFJK, ICntrl=      2127 FMM=F ISym2X=0 I1Cent= 0 IOpClX= 0 NMat=1 NMatS=1 NMatT=0.
 ***** Axes restored to original set *****
 -------------------------------------------------------------------
 Center     Atomic                   Forces (Hartrees/Bohr)
 Number     Number              X              Y              Z
 -------------------------------------------------------------------
      1        6           0.013140075   -0.004552553    0.000725429
      2        6          -0.012954113   -0.002335514    0.000236637
      3        6          -0.006061630   -0.003603778    0.000460985
      4        6           0.000372993    0.002031771   -0.000280845
      5        6          -0.000467834   -0.000355458    0.000046362
      6        6           0.003156386    0.011738027   -0.001615625
      7        6           0.004695198   -0.006773836    0.000977192
      8        8          -0.004229853   -0.010568911    0.001445149
      9        1          -0.000090303    0.000777170   -0.002706041
     10        1          -0.000125387    0.001487849    0.002388627
     11        1          -0.003154579   -0.000067777   -0.000012234
     12        1           0.000416045   -0.001978301    0.000278811
     13        1           0.000113395   -0.000828981    0.000116417
     14        1           0.001484647    0.000274166   -0.000028029
     15        1           0.000488058   -0.002559863    0.000360434
     16        1           0.003216903    0.017315988   -0.002393271
 -------------------------------------------------------------------
 Cartesian Forces:  Max     0.017315988 RMS     0.004849002

 GradGradGradGradGradGradGradGradGradGradGradGradGradGradGradGradGradGrad
 Berny optimization.
 FormGI is forming the generalized inverse of G from B-inverse, IUseBI=4.
 Internal  Forces:  Max     0.016933269 RMS     0.003302284
 Search for a local minimum.
 Step number   1 out of a maximum of   83
 All quantities printed in internal units (Hartrees-Bohrs-Radians)
 Mixed Optimization -- RFO/linear search
 Second derivative matrix not updated -- first step.
 ITU=  0
     Eigenvalues ---    0.00904   0.01551   0.01962   0.01968   0.02005
     Eigenvalues ---    0.02084   0.02097   0.02101   0.02108   0.02124
     Eigenvalues ---    0.02133   0.07022   0.07380   0.16000   0.16000
     Eigenvalues ---    0.16000   0.16000   0.16000   0.16000   0.16000
     Eigenvalues ---    0.16000   0.22000   0.22493   0.24479   0.25000
     Eigenvalues ---    0.25000   0.33494   0.33504   0.33504   0.34172
     Eigenvalues ---    0.34841   0.34923   0.35095   0.35458   0.40613
     Eigenvalues ---    0.41678   0.44422   0.45564   0.45913   0.46320
     Eigenvalues ---    0.49270   0.49955
 RFO step:  Lambda=-2.61531452D-03 EMin= 9.03623006D-03
 Linear search not attempted -- first point.
 Iteration  1 RMS(Cart)=  0.02013637 RMS(Int)=  0.00054148
 Iteration  2 RMS(Cart)=  0.00055129 RMS(Int)=  0.00003446
 Iteration  3 RMS(Cart)=  0.00000051 RMS(Int)=  0.00003446
 Variable       Old X    -DE/DX   Delta X   Delta X   Delta X     New X
                                 (Linear)    (Quad)   (Total)
    R1        2.81492   0.00948   0.00000   0.02810   0.02810   2.84302
    R2        2.08175  -0.00261   0.00000  -0.00773  -0.00773   2.07402
    R3        2.08175  -0.00261   0.00000  -0.00773  -0.00773   2.07402
    R4        2.07041  -0.00100   0.00000  -0.00291  -0.00291   2.06750
    R5        2.63800   0.00057   0.00000   0.00124   0.00124   2.63923
    R6        2.67813  -0.00786   0.00000  -0.01856  -0.01856   2.65958
    R7        2.65167  -0.00362   0.00000  -0.00764  -0.00765   2.64403
    R8        2.05933  -0.00169   0.00000  -0.00483  -0.00483   2.05451
    R9        2.63529  -0.00389   0.00000  -0.00800  -0.00801   2.62728
   R10        2.05521  -0.00074   0.00000  -0.00209  -0.00209   2.05312
   R11        2.64625  -0.00162   0.00000  -0.00355  -0.00355   2.64270
   R12        2.05800  -0.00151   0.00000  -0.00428  -0.00428   2.05371
   R13        2.64127  -0.00290   0.00000  -0.00660  -0.00660   2.63467
   R14        2.04938   0.00219   0.00000   0.00614   0.00614   2.05552
   R15        2.60609  -0.00585   0.00000  -0.01182  -0.01182   2.59427
   R16        1.86611  -0.01693   0.00000  -0.03372  -0.03372   1.83239
    A1        1.93439   0.00209   0.00000   0.01411   0.01404   1.94843
    A2        1.93439   0.00209   0.00000   0.01411   0.01404   1.94843
    A3        1.97240  -0.00500   0.00000  -0.03333  -0.03327   1.93914
    A4        1.85322  -0.00120   0.00000  -0.00229  -0.00248   1.85074
    A5        1.88221   0.00110   0.00000   0.00440   0.00445   1.88666
    A6        1.88221   0.00110   0.00000   0.00440   0.00445   1.88666
    A7        2.13948   0.00070   0.00000   0.00324   0.00324   2.14272
    A8        2.09525  -0.00082   0.00000  -0.00277  -0.00278   2.09247
    A9        2.04846   0.00012   0.00000  -0.00047  -0.00047   2.04799
   A10        2.11121   0.00376   0.00000   0.01722   0.01722   2.12842
   A11        2.08725  -0.00305   0.00000  -0.01582  -0.01581   2.07144
   A12        2.08472  -0.00071   0.00000  -0.00141  -0.00140   2.08332
   A13        2.10120  -0.00365   0.00000  -0.01541  -0.01541   2.08579
   A14        2.08625   0.00225   0.00000   0.01030   0.01030   2.09656
   A15        2.09573   0.00140   0.00000   0.00510   0.00511   2.10084
   A16        2.09981  -0.00136   0.00000  -0.00588  -0.00588   2.09393
   A17        2.09752   0.00059   0.00000   0.00237   0.00237   2.09989
   A18        2.08586   0.00077   0.00000   0.00351   0.00351   2.08937
   A19        2.06722   0.00520   0.00000   0.02218   0.02219   2.08941
   A20        2.10355  -0.00111   0.00000  -0.00194  -0.00194   2.10161
   A21        2.11242  -0.00409   0.00000  -0.02025  -0.02025   2.09217
   A22        2.13847  -0.00406   0.00000  -0.01765  -0.01765   2.12082
   A23        2.01427   0.00234   0.00000   0.01006   0.01006   2.02433
   A24        2.13044   0.00172   0.00000   0.00759   0.00759   2.13803
   A25        1.94824  -0.01008   0.00000  -0.06199  -0.06199   1.88625
    D1        2.11504  -0.00057   0.00000  -0.00745  -0.00754   2.10750
    D2       -1.02655  -0.00057   0.00000  -0.00745  -0.00754  -1.03409
    D3       -2.11505   0.00057   0.00000   0.00745   0.00754  -2.10751
    D4        1.02655   0.00057   0.00000   0.00745   0.00754   1.03409
    D5       -0.00000   0.00000   0.00000   0.00000   0.00000  -0.00000
    D6        3.14159   0.00000   0.00000   0.00000   0.00000   3.14159
    D7       -3.14159   0.00000   0.00000   0.00000   0.00000  -3.14159
    D8       -0.00000   0.00000   0.00000   0.00000   0.00000   0.00000
    D9       -0.00000   0.00000   0.00000   0.00000   0.00000  -0.00000
   D10        3.14159   0.00000   0.00000   0.00000   0.00000  -3.14159
   D11        3.14159  -0.00000   0.00000  -0.00000  -0.00000   3.14159
   D12        0.00000  -0.00000   0.00000  -0.00000  -0.00000   0.00000
   D13        0.00000  -0.00000   0.00000  -0.00000  -0.00000   0.00000
   D14       -3.14159   0.00000   0.00000   0.00000   0.00000  -3.14159
   D15        0.00000  -0.00000   0.00000  -0.00000  -0.00000  -0.00000
   D16       -3.14159  -0.00000   0.00000  -0.00000  -0.00000  -3.14159
   D17       -3.14159  -0.00000   0.00000  -0.00000  -0.00000   3.14159
   D18        0.00000  -0.00000   0.00000  -0.00000  -0.00000   0.00000
   D19       -0.00000   0.00000   0.00000   0.00000   0.00000   0.00000
   D20        3.14159   0.00000   0.00000   0.00000   0.00000  -3.14159
   D21        3.14159  -0.00000   0.00000   0.00000  -0.00000   3.14159
   D22       -0.00000   0.00000   0.00000   0.00000   0.00000  -0.00000
   D23        0.00000  -0.00000   0.00000  -0.00000  -0.00000   0.00000
   D24        3.14159   0.00000   0.00000   0.00000   0.00000   3.14159
   D25        3.14159  -0.00000   0.00000  -0.00000   0.00000   3.14159
   D26       -0.00000   0.00000   0.00000   0.00000   0.00000  -0.00000
   D27       -0.00000   0.00000   0.00000   0.00000   0.00000  -0.00000
   D28        3.14159  -0.00000   0.00000  -0.00000  -0.00000   3.14159
   D29       -3.14159  -0.00000   0.00000  -0.00000  -0.00000  -3.14159
   D30       -0.00000  -0.00000   0.00000  -0.00000  -0.00000  -0.00000
   D31       -3.14159  -0.00000   0.00000  -0.00000  -0.00000  -3.14159
   D32        0.00000  -0.00000   0.00000  -0.00000  -0.00000   0.00000
         Item               Value     Threshold  Converged?
 Maximum Force            0.016933     0.000450     NO 
 RMS     Force            0.003302     0.000300     NO 
 Maximum Displacement     0.091496     0.001800     NO 
 RMS     Displacement     0.020013     0.001200     NO 
 Predicted change in Energy=-1.322188D-03
 GradGradGradGradGradGradGradGradGradGradGradGradGradGradGradGradGradGrad

                          Input orientation:                          
 ---------------------------------------------------------------------
 Center     Atomic      Atomic             Coordinates (Angstroms)
 Number     Number       Type             X           Y           Z
 ---------------------------------------------------------------------
      1          6           0        2.170679    0.459928   -0.049220
      2          6           0        0.674096    0.306581   -0.038127
      3          6           0       -0.197619    1.386458   -0.194758
      4          6           0       -1.587270    1.224147   -0.181679
      5          6           0       -2.126803   -0.045409   -0.008300
      6          6           0       -1.281482   -1.147968    0.151313
      7          6           0        0.100840   -0.966975    0.135578
      8          8           0        0.982844   -2.008051    0.286867
      9          1           0        2.620459    0.108414    0.888168
     10          1           0        2.632409   -0.133836   -0.848475
     11          1           0        2.458481    1.505618   -0.193106
     12          1           0        0.221814    2.380263   -0.330498
     13          1           0       -2.238011    2.085206   -0.306266
     14          1           0       -3.204309   -0.186537    0.003972
     15          1           0       -1.695889   -2.144408    0.287456
     16          1           0        0.469760   -2.823427    0.397074
 ---------------------------------------------------------------------
                    Distance matrix (angstroms):
                    1          2          3          4          5
     1  C    0.000000
     2  C    1.504460   0.000000
     3  C    2.547249   1.396623   0.000000
     4  C    3.837155   2.444650   1.399159   0.000000
     5  C    4.327284   2.823087   2.409721   1.390297   0.000000
     6  C    3.813523   2.444562   2.778099   2.414812   1.398456
     7  C    2.520801   1.407388   2.395172   2.784131   2.415032
     8  O    2.759497   2.357640   3.626037   4.155974   3.689037
     9  H    1.097524   2.164630   3.278367   4.482680   4.833612
    10  H    1.097524   2.164630   3.278368   4.482681   4.833612
    11  H    1.094075   2.155397   2.658773   4.055547   4.844034
    12  H    2.750433   2.142474   1.087198   2.152101   3.391709
    13  H    4.705758   3.422832   2.159603   1.086467   2.154222
    14  H    5.413986   3.909855   3.399116   2.153906   1.086779
    15  H    4.673999   3.424935   3.865793   3.402800   2.163089
    16  H    3.724611   3.166718   4.303347   4.577028   3.824115
                    6          7          8          9         10
     6  C    0.000000
     7  C    1.394210   0.000000
     8  O    2.425962   1.372828   0.000000
     9  H    4.164924   2.841009   2.742766   0.000000
    10  H    4.164923   2.841007   2.742763   1.753499   0.000000
    11  H    4.598637   3.432233   3.841060   1.774139   1.774139
    12  H    3.865288   3.381696   4.496399   3.521355   3.521358
    13  H    3.402608   3.870564   5.242182   5.379509   5.379511
    14  H    2.154837   3.398590   4.574953   5.898875   5.898875
    15  H    1.087732   2.153521   2.682202   4.905805   4.905803
    16  H    2.436065   1.910732   0.969660   3.669111   3.669107
                   11         12         13         14         15
    11  H    0.000000
    12  H    2.405527   0.000000
    13  H    4.733474   2.477577   0.000000
    14  H    5.913495   4.294025   2.488132   0.000000
    15  H    5.550894   4.952989   4.305350   2.487760   0.000000
    16  H    4.800412   5.260155   5.649903   4.539439   2.272250
                   16
    16  H    0.000000
 Stoichiometry    C7H8O
 Framework group  C1[X(C7H8O)]
 Deg. of freedom    42
 Full point group                 C1      NOp   1
 Largest Abelian subgroup         C1      NOp   1
 Largest concise Abelian subgroup C1      NOp   1
                         Standard orientation:                         
 ---------------------------------------------------------------------
 Center     Atomic      Atomic             Coordinates (Angstroms)
 Number     Number       Type             X           Y           Z
 ---------------------------------------------------------------------
      1          6           0       -1.982765   -1.214003    0.000000
      2          6           0       -0.591308   -0.641948   -0.000000
      3          6           0        0.554379   -1.440670   -0.000000
      4          6           0        1.840704   -0.890203    0.000000
      5          6           0        1.994209    0.491593    0.000000
      6          6           0        0.867336    1.319745    0.000000
      7          6           0       -0.406604    0.753267   -0.000000
      8          8           0       -1.551035    1.511512    0.000000
      9          1           0       -2.555397   -0.885430    0.876751
     10          1           0       -2.555399   -0.885427   -0.876748
     11          1           0       -1.959010   -2.307821   -0.000002
     12          1           0        0.437007   -2.521513   -0.000000
     13          1           0        2.711713   -1.539628    0.000000
     14          1           0        2.987220    0.933203    0.000000
     15          1           0        0.979131    2.401717    0.000000
     16          1           0       -1.292685    2.446121   -0.000000
 ---------------------------------------------------------------------
 Rotational constants (GHZ):           3.2872272           2.1862016           1.3236435
 Standard basis: 6-31G(d) (6D, 7F)
 There are   136 symmetry adapted cartesian basis functions of A   symmetry.
 There are   136 symmetry adapted basis functions of A   symmetry.
   136 basis functions,   256 primitive gaussians,   136 cartesian basis functions
    29 alpha electrons       29 beta electrons
       nuclear repulsion energy       347.6750928494 Hartrees.
 NAtoms=   16 NActive=   16 NUniq=   16 SFac= 1.00D+00 NAtFMM=   60 NAOKFM=F Big=F
 Integral buffers will be    131072 words long.
 Raffenetti 2 integral format.
 Two-electron integral symmetry is turned on.
 One-electron integrals computed using PRISM.
 NBasis=   136 RedAO= T EigKep=  4.28D-04  NBF=   136
 NBsUse=   136 1.00D-06 EigRej= -1.00D+00 NBFU=   136
 Initial guess from the checkpoint file:  "3_#_opt_freq_b3lyp_6-31G_d_geom_allcheck_guess_read.chk"
 B after Tr=     0.000000   -0.000000    0.000000
         Rot=    1.000000    0.000000    0.000000   -0.000147 Ang=  -0.02 deg.
 ExpMin= 1.61D-01 ExpMax= 5.48D+03 ExpMxC= 8.25D+02 IAcc=2 IRadAn=         4 AccDes= 0.00D+00
 Harris functional with IExCor=  402 and IRadAn=       4 diagonalized for initial guess.
 HarFok:  IExCor=  402 AccDes= 0.00D+00 IRadAn=         4 IDoV= 1 UseB2=F ITyADJ=14
 ICtDFT=  3500011 ScaDFX=  1.000000  1.000000  1.000000  1.000000
 FoFCou: FMM=F IPFlag=           0 FMFlag=      100000 FMFlg1=           0
         NFxFlg=           0 DoJE=T BraDBF=F KetDBF=T FulRan=T
         wScrn=  0.000000 ICntrl=       500 IOpCl=  0 I1Cent=   200000004 NGrid=           0
         NMat0=    1 NMatS0=      1 NMatT0=    0 NMatD0=    1 NMtDS0=    0 NMtDT0=    0
 Petite list used in FoFCou.
 Requested convergence on RMS density matrix=1.00D-08 within 128 cycles.
 Requested convergence on MAX density matrix=1.00D-06.
 Requested convergence on             energy=1.00D-06.
 No special actions if energy rises.
 Integral accuracy reduced to 1.0D-05 until final iterations.
 Initial convergence to 1.0D-05 achieved.  Increase integral accuracy.
 SCF Done:  E(RB3LYP) =  -346.783460787     A.U. after   11 cycles
            NFock= 11  Conv=0.83D-08     -V/T= 2.0096
 Calling FoFJK, ICntrl=      2127 FMM=F ISym2X=0 I1Cent= 0 IOpClX= 0 NMat=1 NMatS=1 NMatT=0.
 ***** Axes restored to original set *****
 -------------------------------------------------------------------
 Center     Atomic                   Forces (Hartrees/Bohr)
 Number     Number              X              Y              Z
 -------------------------------------------------------------------
      1        6           0.002710428    0.000243175   -0.000015273
      2        6          -0.003247771    0.000399508   -0.000078071
      3        6          -0.000044903    0.000200794   -0.000028322
      4        6           0.001242166    0.001571884   -0.000210719
      5        6          -0.000435561   -0.002515638    0.000347911
      6        6          -0.001283991    0.002229900   -0.000319886
      7        6           0.003633628    0.000600157   -0.000058706
      8        8          -0.002387624   -0.001330670    0.000169181
      9        1          -0.000761393    0.000157034   -0.000056847
     10        1          -0.000761795    0.000165164    0.000001419
     11        1          -0.000318719    0.000362938   -0.000052815
     12        1           0.000568210    0.000299401   -0.000037854
     13        1           0.000297378   -0.000060159    0.000010439
     14        1           0.000110019   -0.000473881    0.000066860
     15        1          -0.000308827   -0.000813610    0.000111365
     16        1           0.000988756   -0.001035998    0.000151319
 -------------------------------------------------------------------
 Cartesian Forces:  Max     0.003633628 RMS     0.001133693

 GradGradGradGradGradGradGradGradGradGradGradGradGradGradGradGradGradGrad
 Berny optimization.
 Using GEDIIS/GDIIS optimizer.
 FormGI is forming the generalized inverse of G from B-inverse, IUseBI=4.
 Internal  Forces:  Max     0.002768689 RMS     0.000717592
 Search for a local minimum.
 Step number   2 out of a maximum of   83
 All quantities printed in internal units (Hartrees-Bohrs-Radians)
 Mixed Optimization -- En-DIIS/RFO-DIIS
 Update second derivatives using D2CorX and points    1    2
 DE= -1.26D-03 DEPred=-1.32D-03 R= 9.52D-01
 TightC=F SS=  1.41D+00  RLast= 1.04D-01 DXNew= 5.0454D-01 3.1155D-01
 Trust test= 9.52D-01 RLast= 1.04D-01 DXMaxT set to 3.12D-01
 ITU=  1  0
 Use linear search instead of GDIIS.
     Eigenvalues ---    0.00904   0.01551   0.01963   0.01968   0.02005
     Eigenvalues ---    0.02084   0.02096   0.02100   0.02108   0.02123
     Eigenvalues ---    0.02133   0.07201   0.07231   0.15406   0.16000
     Eigenvalues ---    0.16000   0.16000   0.16000   0.16000   0.16000
     Eigenvalues ---    0.17830   0.21299   0.22030   0.24219   0.24985
     Eigenvalues ---    0.25719   0.32739   0.33504   0.33508   0.34192
     Eigenvalues ---    0.34895   0.34931   0.35089   0.35394   0.40822
     Eigenvalues ---    0.41558   0.44364   0.45474   0.46015   0.46729
     Eigenvalues ---    0.49319   0.51800
 RFO step:  Lambda=-1.33921007D-04 EMin= 9.03623006D-03
 Quartic linear search produced a step of -0.04405.
 Iteration  1 RMS(Cart)=  0.00597870 RMS(Int)=  0.00001618
 Iteration  2 RMS(Cart)=  0.00002132 RMS(Int)=  0.00000276
 Iteration  3 RMS(Cart)=  0.00000000 RMS(Int)=  0.00000276
 Variable       Old X    -DE/DX   Delta X   Delta X   Delta X     New X
                                 (Linear)    (Quad)   (Total)
    R1        2.84302   0.00096  -0.00124   0.00545   0.00421   2.84723
    R2        2.07402  -0.00041   0.00034  -0.00192  -0.00158   2.07244
    R3        2.07402  -0.00041   0.00034  -0.00192  -0.00158   2.07244
    R4        2.06750   0.00027   0.00013   0.00047   0.00060   2.06810
    R5        2.63923  -0.00055  -0.00005  -0.00102  -0.00107   2.63816
    R6        2.65958   0.00092   0.00082   0.00025   0.00107   2.66064
    R7        2.64403  -0.00059   0.00034  -0.00197  -0.00164   2.64239
    R8        2.05451   0.00050   0.00021   0.00090   0.00111   2.05562
    R9        2.62728   0.00203   0.00035   0.00341   0.00376   2.63104
   R10        2.05312  -0.00023   0.00009  -0.00082  -0.00073   2.05240
   R11        2.64270  -0.00131   0.00016  -0.00309  -0.00294   2.63976
   R12        2.05371  -0.00005   0.00019  -0.00054  -0.00035   2.05336
   R13        2.63467   0.00096   0.00029   0.00136   0.00165   2.63633
   R14        2.05552   0.00088  -0.00027   0.00296   0.00269   2.05820
   R15        2.59427   0.00093   0.00052   0.00067   0.00119   2.59546
   R16        1.83239   0.00037   0.00149  -0.00255  -0.00106   1.83133
    A1        1.94843  -0.00065  -0.00062  -0.00235  -0.00297   1.94547
    A2        1.94843  -0.00065  -0.00062  -0.00235  -0.00297   1.94547
    A3        1.93914  -0.00032   0.00147  -0.00548  -0.00403   1.93511
    A4        1.85074   0.00078   0.00011   0.00500   0.00511   1.85585
    A5        1.88666   0.00047  -0.00020   0.00298   0.00277   1.88943
    A6        1.88666   0.00047  -0.00020   0.00298   0.00277   1.88943
    A7        2.14272  -0.00161  -0.00014  -0.00583  -0.00598   2.13675
    A8        2.09247   0.00052   0.00012   0.00174   0.00186   2.09433
    A9        2.04799   0.00110   0.00002   0.00410   0.00412   2.05211
   A10        2.12842  -0.00029  -0.00076   0.00042  -0.00034   2.12808
   A11        2.07144  -0.00028   0.00070  -0.00342  -0.00272   2.06872
   A12        2.08332   0.00056   0.00006   0.00300   0.00306   2.08638
   A13        2.08579  -0.00007   0.00068  -0.00176  -0.00109   2.08470
   A14        2.09656  -0.00017  -0.00045  -0.00010  -0.00055   2.09600
   A15        2.10084   0.00024  -0.00023   0.00187   0.00164   2.10248
   A16        2.09393  -0.00011   0.00026  -0.00105  -0.00079   2.09314
   A17        2.09989   0.00056  -0.00010   0.00346   0.00336   2.10325
   A18        2.08937  -0.00045  -0.00015  -0.00241  -0.00257   2.08680
   A19        2.08941   0.00069  -0.00098   0.00513   0.00415   2.09356
   A20        2.10161  -0.00032   0.00009  -0.00150  -0.00142   2.10019
   A21        2.09217  -0.00037   0.00089  -0.00363  -0.00274   2.08943
   A22        2.12082  -0.00133   0.00078  -0.00683  -0.00605   2.11477
   A23        2.02433   0.00277  -0.00044   0.01158   0.01114   2.03547
   A24        2.13803  -0.00144  -0.00033  -0.00475  -0.00509   2.13295
   A25        1.88625   0.00255   0.00273   0.00917   0.01190   1.89815
    D1        2.10750  -0.00006   0.00033  -0.00160  -0.00126   2.10624
    D2       -1.03409  -0.00006   0.00033  -0.00160  -0.00126  -1.03535
    D3       -2.10751   0.00006  -0.00033   0.00160   0.00126  -2.10625
    D4        1.03409   0.00006  -0.00033   0.00160   0.00126   1.03535
    D5       -0.00000   0.00000  -0.00000   0.00000   0.00000  -0.00000
    D6        3.14159   0.00000  -0.00000   0.00000   0.00000   3.14159
    D7       -3.14159  -0.00000  -0.00000  -0.00000  -0.00000  -3.14159
    D8        0.00000  -0.00000  -0.00000  -0.00000  -0.00000   0.00000
    D9       -0.00000  -0.00000  -0.00000   0.00000   0.00000   0.00000
   D10       -3.14159   0.00000  -0.00000   0.00000   0.00000  -3.14159
   D11        3.14159   0.00000   0.00000   0.00000   0.00000   3.14159
   D12       -0.00000  -0.00000   0.00000  -0.00000  -0.00000  -0.00000
   D13        0.00000   0.00000   0.00000  -0.00000   0.00000   0.00000
   D14       -3.14159  -0.00000  -0.00000  -0.00000  -0.00000  -3.14159
   D15       -0.00000   0.00000   0.00000  -0.00000   0.00000  -0.00000
   D16       -3.14159  -0.00000   0.00000  -0.00000  -0.00000  -3.14159
   D17        3.14159  -0.00000   0.00000  -0.00000  -0.00000   3.14159
   D18        0.00000  -0.00000   0.00000  -0.00000  -0.00000  -0.00000
   D19        0.00000  -0.00000  -0.00000  -0.00000  -0.00000   0.00000
   D20       -3.14159  -0.00000  -0.00000  -0.00000  -0.00000  -3.14159
   D21        3.14159   0.00000   0.00000   0.00000   0.00000   3.14159
   D22       -0.00000   0.00000  -0.00000   0.00000  -0.00000  -0.00000
   D23       -0.00000   0.00000   0.00000   0.00000   0.00000   0.00000
   D24        3.14159   0.00000  -0.00000   0.00000   0.00000   3.14159
   D25        3.14159   0.00000   0.00000   0.00000   0.00000  -3.14159
   D26       -0.00000   0.00000  -0.00000   0.00000   0.00000  -0.00000
   D27       -0.00000  -0.00000  -0.00000  -0.00000  -0.00000  -0.00000
   D28        3.14159   0.00000   0.00000   0.00000   0.00000   3.14159
   D29        3.14159  -0.00000   0.00000  -0.00000   0.00000   3.14159
   D30       -0.00000   0.00000   0.00000   0.00000   0.00000  -0.00000
   D31       -3.14159  -0.00000   0.00000  -0.00000  -0.00000  -3.14159
   D32        0.00000  -0.00000   0.00000  -0.00000  -0.00000   0.00000
         Item               Value     Threshold  Converged?
 Maximum Force            0.002769     0.000450     NO 
 RMS     Force            0.000718     0.000300     NO 
 Maximum Displacement     0.023790     0.001800     NO 
 RMS     Displacement     0.005974     0.001200     NO 
 Predicted change in Energy=-6.969510D-05
 GradGradGradGradGradGradGradGradGradGradGradGradGradGradGradGradGradGrad

                          Input orientation:                          
 ---------------------------------------------------------------------
 Center     Atomic      Atomic             Coordinates (Angstroms)
 Number     Number       Type             X           Y           Z
 ---------------------------------------------------------------------
      1          6           0        2.171625    0.464743   -0.049885
      2          6           0        0.673470    0.305042   -0.037917
      3          6           0       -0.195875    1.386073   -0.194692
      4          6           0       -1.584909    1.225937   -0.181912
      5          6           0       -2.125753   -0.045210   -0.008320
      6          6           0       -1.280959   -1.146233    0.151075
      7          6           0        0.102908   -0.970310    0.136057
      8          8           0        0.975948   -2.019580    0.288428
      9          1           0        2.619957    0.115763    0.888165
     10          1           0        2.631921   -0.126767   -0.850491
     11          1           0        2.450889    1.513021   -0.194190
     12          1           0        0.228366    2.378511   -0.330209
     13          1           0       -2.233624    2.088021   -0.306629
     14          1           0       -3.202654   -0.189448    0.004390
     15          1           0       -1.696962   -2.143545    0.287328
     16          1           0        0.465653   -2.836017    0.398802
 ---------------------------------------------------------------------
                    Distance matrix (angstroms):
                    1          2          3          4          5
     1  C    0.000000
     2  C    1.506690   0.000000
     3  C    2.544577   1.396054   0.000000
     4  C    3.835152   2.443166   1.398293   0.000000
     5  C    4.327729   2.821206   2.409924   1.392286   0.000000
     6  C    3.815228   2.441661   2.776605   2.414634   1.396902
     7  C    2.524588   1.407952   2.398167   2.788069   2.417350
     8  O    2.777762   2.366825   3.633875   4.160840   3.688732
     9  H    1.096689   2.163855   3.273404   4.478666   4.832325
    10  H    1.096689   2.163855   3.273406   4.478667   4.832325
    11  H    1.094394   2.154728   2.649806   4.046014   4.838210
    12  H    2.741777   2.140754   1.087786   2.153691   3.394099
    13  H    4.701826   3.420880   2.158167   1.086082   2.156687
    14  H    5.414221   3.907768   3.400386   2.157573   1.086592
    15  H    4.677910   3.423494   3.865722   3.403844   2.162008
    16  H    3.742550   3.178075   4.314614   4.587102   3.830109
                    6          7          8          9         10
     6  C    0.000000
     7  C    1.395085   0.000000
     8  O    2.423887   1.373457   0.000000
     9  H    4.165703   2.842668   2.760823   0.000000
    10  H    4.165702   2.842666   2.760820   1.755531   0.000000
    11  H    4.595381   3.433512   3.858450   1.775501   1.775502
    12  H    3.864390   3.383451   4.503865   3.510580   3.510582
    13  H    3.402567   3.874111   5.246697   5.373508   5.373509
    14  H    2.151712   3.399091   4.570643   5.897204   5.897204
    15  H    1.089153   2.153809   2.675783   4.909305   4.909303
    16  H    2.442825   1.918719   0.969099   3.686938   3.686935
                   11         12         13         14         15
    11  H    0.000000
    12  H    2.388971   0.000000
    13  H    4.721009   2.479181   0.000000
    14  H    5.907654   4.298636   2.494517   0.000000
    15  H    5.550405   4.953507   4.306616   2.483074   0.000000
    16  H    4.817357   5.270584   5.659494   4.540524   2.273510
                   16
    16  H    0.000000
 Stoichiometry    C7H8O
 Framework group  C1[X(C7H8O)]
 Deg. of freedom    42
 Full point group                 C1      NOp   1
 Largest Abelian subgroup         C1      NOp   1
 Largest concise Abelian subgroup C1      NOp   1
                         Standard orientation:                         
 ---------------------------------------------------------------------
 Center     Atomic      Atomic             Coordinates (Angstroms)
 Number     Number       Type             X           Y           Z
 ---------------------------------------------------------------------
      1          6           0       -1.979358   -1.224497    0.000000
      2          6           0       -0.589519   -0.642720   -0.000000
      3          6           0        0.556021   -1.440657   -0.000000
      4          6           0        1.841143   -0.889581    0.000000
      5          6           0        1.992340    0.494471    0.000000
      6          6           0        0.864556    1.318752    0.000000
      7          6           0       -0.411052    0.753876   -0.000000
      8          8           0       -1.550960    1.520031    0.000000
      9          1           0       -2.550655   -0.899117    0.877767
     10          1           0       -2.550656   -0.899114   -0.877765
     11          1           0       -1.944213   -2.318326   -0.000002
     12          1           0        0.436076   -2.521810   -0.000000
     13          1           0        2.711964   -1.538615    0.000000
     14          1           0        2.982876    0.941148    0.000000
     15          1           0        0.975197    2.402271    0.000000
     16          1           0       -1.297691    2.455449   -0.000000
 ---------------------------------------------------------------------
 Rotational constants (GHZ):           3.2684711           2.1896490           1.3218740
 Standard basis: 6-31G(d) (6D, 7F)
 There are   136 symmetry adapted cartesian basis functions of A   symmetry.
 There are   136 symmetry adapted basis functions of A   symmetry.
   136 basis functions,   256 primitive gaussians,   136 cartesian basis functions
    29 alpha electrons       29 beta electrons
       nuclear repulsion energy       347.4890431623 Hartrees.
 NAtoms=   16 NActive=   16 NUniq=   16 SFac= 1.00D+00 NAtFMM=   60 NAOKFM=F Big=F
 Integral buffers will be    131072 words long.
 Raffenetti 2 integral format.
 Two-electron integral symmetry is turned on.
 One-electron integrals computed using PRISM.
 NBasis=   136 RedAO= T EigKep=  4.28D-04  NBF=   136
 NBsUse=   136 1.00D-06 EigRej= -1.00D+00 NBFU=   136
 Initial guess from the checkpoint file:  "3_#_opt_freq_b3lyp_6-31G_d_geom_allcheck_guess_read.chk"
 B after Tr=     0.000000    0.000000   -0.000000
         Rot=    1.000000    0.000000    0.000000   -0.000725 Ang=  -0.08 deg.
 ExpMin= 1.61D-01 ExpMax= 5.48D+03 ExpMxC= 8.25D+02 IAcc=2 IRadAn=         4 AccDes= 0.00D+00
 Harris functional with IExCor=  402 and IRadAn=       4 diagonalized for initial guess.
 HarFok:  IExCor=  402 AccDes= 0.00D+00 IRadAn=         4 IDoV= 1 UseB2=F ITyADJ=14
 ICtDFT=  3500011 ScaDFX=  1.000000  1.000000  1.000000  1.000000
 FoFCou: FMM=F IPFlag=           0 FMFlag=      100000 FMFlg1=           0
         NFxFlg=           0 DoJE=T BraDBF=F KetDBF=T FulRan=T
         wScrn=  0.000000 ICntrl=       500 IOpCl=  0 I1Cent=   200000004 NGrid=           0
         NMat0=    1 NMatS0=      1 NMatT0=    0 NMatD0=    1 NMtDS0=    0 NMtDT0=    0
 Petite list used in FoFCou.
 Requested convergence on RMS density matrix=1.00D-08 within 128 cycles.
 Requested convergence on MAX density matrix=1.00D-06.
 Requested convergence on             energy=1.00D-06.
 No special actions if energy rises.
 Integral accuracy reduced to 1.0D-05 until final iterations.
 Initial convergence to 1.0D-05 achieved.  Increase integral accuracy.
 SCF Done:  E(RB3LYP) =  -346.783533859     A.U. after   10 cycles
            NFock= 10  Conv=0.68D-08     -V/T= 2.0096
 Calling FoFJK, ICntrl=      2127 FMM=F ISym2X=0 I1Cent= 0 IOpClX= 0 NMat=1 NMatS=1 NMatT=0.
 ***** Axes restored to original set *****
 -------------------------------------------------------------------
 Center     Atomic                   Forces (Hartrees/Bohr)
 Number     Number              X              Y              Z
 -------------------------------------------------------------------
      1        6           0.000625816    0.000298881   -0.000037373
      2        6          -0.000454044   -0.001105999    0.000151155
      3        6          -0.000295539    0.000281922   -0.000041363
      4        6           0.000372003    0.000407919   -0.000054341
      5        6          -0.000055356   -0.000764159    0.000106213
      6        6          -0.000955896    0.000363763   -0.000057320
      7        6           0.001448033   -0.000099699    0.000023874
      8        8          -0.000091257    0.001147688   -0.000160723
      9        1          -0.000162086    0.000017532    0.000137036
     10        1          -0.000160183   -0.000020944   -0.000138791
     11        1           0.000019327   -0.000023348    0.000003390
     12        1           0.000128342   -0.000009060    0.000002148
     13        1          -0.000026974    0.000023318   -0.000003438
     14        1          -0.000043519   -0.000070095    0.000009478
     15        1          -0.000017841    0.000005254   -0.000000855
     16        1          -0.000330826   -0.000452972    0.000060911
 -------------------------------------------------------------------
 Cartesian Forces:  Max     0.001448033 RMS     0.000407028

 GradGradGradGradGradGradGradGradGradGradGradGradGradGradGradGradGradGrad
 Berny optimization.
 Using GEDIIS/GDIIS optimizer.
 FormGI is forming the generalized inverse of G from B-inverse, IUseBI=4.
 Internal  Forces:  Max     0.000810431 RMS     0.000203463
 Search for a local minimum.
 Step number   3 out of a maximum of   83
 All quantities printed in internal units (Hartrees-Bohrs-Radians)
 Mixed Optimization -- En-DIIS/RFO-DIIS
 Swapping is turned off.
 Update second derivatives using D2CorX and points    1    2    3
 DE= -7.31D-05 DEPred=-6.97D-05 R= 1.05D+00
 TightC=F SS=  1.41D+00  RLast= 2.44D-02 DXNew= 5.2396D-01 7.3329D-02
 Trust test= 1.05D+00 RLast= 2.44D-02 DXMaxT set to 3.12D-01
 ITU=  1  1  0
     Eigenvalues ---    0.00904   0.01552   0.01963   0.01968   0.02004
     Eigenvalues ---    0.02084   0.02096   0.02100   0.02108   0.02123
     Eigenvalues ---    0.02133   0.07242   0.07246   0.14339   0.16000
     Eigenvalues ---    0.16000   0.16000   0.16000   0.16000   0.16172
     Eigenvalues ---    0.17735   0.20775   0.22046   0.23900   0.24969
     Eigenvalues ---    0.25912   0.32463   0.33504   0.33588   0.34203
     Eigenvalues ---    0.34895   0.34928   0.35102   0.35405   0.41224
     Eigenvalues ---    0.41490   0.43902   0.45596   0.45924   0.46519
     Eigenvalues ---    0.50923   0.53003
 En-DIIS/RFO-DIIS/Sim-DIIS IScMMF=       -3 using points:     3    2
 RFO step:  Lambda=-8.69506769D-06.
 DidBck=F Rises=F RFO-DIIS coefs:    1.11515   -0.11515
 Iteration  1 RMS(Cart)=  0.00074881 RMS(Int)=  0.00000060
 Iteration  2 RMS(Cart)=  0.00000068 RMS(Int)=  0.00000031
 Variable       Old X    -DE/DX   Delta X   Delta X   Delta X     New X
                                 (Linear)    (Quad)   (Total)
    R1        2.84723   0.00035   0.00049   0.00105   0.00154   2.84877
    R2        2.07244   0.00005  -0.00018   0.00018  -0.00000   2.07244
    R3        2.07244   0.00005  -0.00018   0.00018  -0.00000   2.07244
    R4        2.06810  -0.00002   0.00007  -0.00010  -0.00004   2.06807
    R5        2.63816   0.00026  -0.00012   0.00063   0.00051   2.63867
    R6        2.66064  -0.00064   0.00012  -0.00178  -0.00165   2.65899
    R7        2.64239  -0.00006  -0.00019  -0.00009  -0.00028   2.64211
    R8        2.05562   0.00004   0.00013   0.00004   0.00017   2.05579
    R9        2.63104   0.00054   0.00043   0.00101   0.00144   2.63248
   R10        2.05240   0.00004  -0.00008   0.00013   0.00005   2.05244
   R11        2.63976  -0.00041  -0.00034  -0.00080  -0.00114   2.63862
   R12        2.05336   0.00005  -0.00004   0.00015   0.00011   2.05347
   R13        2.63633   0.00078   0.00019   0.00167   0.00186   2.63819
   R14        2.05820   0.00000   0.00031  -0.00010   0.00021   2.05841
   R15        2.59546  -0.00081   0.00014  -0.00187  -0.00173   2.59373
   R16        1.83133   0.00056  -0.00012   0.00105   0.00093   1.83226
    A1        1.94547  -0.00023  -0.00034  -0.00128  -0.00162   1.94384
    A2        1.94547  -0.00023  -0.00034  -0.00128  -0.00162   1.94384
    A3        1.93511   0.00011  -0.00046   0.00074   0.00028   1.93539
    A4        1.85585   0.00025   0.00059   0.00143   0.00201   1.85786
    A5        1.88943   0.00006   0.00032   0.00024   0.00056   1.88999
    A6        1.88943   0.00006   0.00032   0.00024   0.00056   1.88999
    A7        2.13675  -0.00022  -0.00069  -0.00054  -0.00122   2.13552
    A8        2.09433   0.00012   0.00021   0.00042   0.00063   2.09496
    A9        2.05211   0.00010   0.00047   0.00011   0.00059   2.05270
   A10        2.12808  -0.00000  -0.00004   0.00009   0.00005   2.12814
   A11        2.06872  -0.00013  -0.00031  -0.00077  -0.00108   2.06764
   A12        2.08638   0.00013   0.00035   0.00068   0.00103   2.08741
   A13        2.08470  -0.00002  -0.00013  -0.00003  -0.00016   2.08455
   A14        2.09600   0.00002  -0.00006   0.00014   0.00007   2.09607
   A15        2.10248   0.00000   0.00019  -0.00010   0.00008   2.10256
   A16        2.09314  -0.00011  -0.00009  -0.00041  -0.00050   2.09264
   A17        2.10325   0.00012   0.00039   0.00048   0.00087   2.10411
   A18        2.08680  -0.00001  -0.00030  -0.00007  -0.00037   2.08643
   A19        2.09356   0.00007   0.00048   0.00026   0.00074   2.09430
   A20        2.10019  -0.00005  -0.00016  -0.00024  -0.00040   2.09979
   A21        2.08943  -0.00001  -0.00031  -0.00002  -0.00034   2.08910
   A22        2.11477  -0.00004  -0.00070  -0.00003  -0.00073   2.11404
   A23        2.03547  -0.00010   0.00128  -0.00089   0.00039   2.03585
   A24        2.13295   0.00014  -0.00059   0.00092   0.00034   2.13329
   A25        1.89815  -0.00007   0.00137  -0.00148  -0.00011   1.89804
    D1        2.10624  -0.00000  -0.00014  -0.00005  -0.00019   2.10605
    D2       -1.03535  -0.00000  -0.00014  -0.00005  -0.00019  -1.03555
    D3       -2.10625   0.00000   0.00015   0.00005   0.00020  -2.10605
    D4        1.03535   0.00000   0.00015   0.00005   0.00020   1.03554
    D5       -0.00000   0.00000   0.00000   0.00000   0.00000  -0.00000
    D6        3.14159   0.00000   0.00000   0.00000   0.00000   3.14159
    D7       -3.14159  -0.00000  -0.00000  -0.00000  -0.00000  -3.14159
    D8        0.00000  -0.00000  -0.00000  -0.00000  -0.00000   0.00000
    D9       -0.00000   0.00000   0.00000   0.00000  -0.00000  -0.00000
   D10       -3.14159  -0.00000   0.00000  -0.00000  -0.00000  -3.14159
   D11        3.14159  -0.00000   0.00000  -0.00000   0.00000   3.14159
   D12       -0.00000   0.00000   0.00000   0.00000   0.00000  -0.00000
   D13        0.00000  -0.00000   0.00000  -0.00000  -0.00000   0.00000
   D14       -3.14159  -0.00000  -0.00000  -0.00000  -0.00000  -3.14159
   D15       -0.00000   0.00000   0.00000   0.00000   0.00000   0.00000
   D16       -3.14159  -0.00000  -0.00000  -0.00000   0.00000  -3.14159
   D17        3.14159   0.00000  -0.00000   0.00000   0.00000   3.14159
   D18       -0.00000   0.00000  -0.00000   0.00000   0.00000  -0.00000
   D19        0.00000  -0.00000  -0.00000  -0.00000   0.00000   0.00000
   D20       -3.14159  -0.00000  -0.00000  -0.00000   0.00000  -3.14159
   D21        3.14159   0.00000   0.00000   0.00000   0.00000   3.14159
   D22       -0.00000   0.00000  -0.00000   0.00000   0.00000  -0.00000
   D23        0.00000  -0.00000   0.00000  -0.00000   0.00000   0.00000
   D24       -3.14159  -0.00000   0.00000  -0.00000  -0.00000   3.14159
   D25        3.14159  -0.00000   0.00000  -0.00000   0.00000   3.14159
   D26       -0.00000  -0.00000   0.00000  -0.00000   0.00000   0.00000
   D27       -0.00000   0.00000  -0.00000   0.00000   0.00000  -0.00000
   D28        3.14159   0.00000   0.00000   0.00000   0.00000   3.14159
   D29        3.14159   0.00000  -0.00000   0.00000   0.00000   3.14159
   D30       -0.00000   0.00000   0.00000   0.00000   0.00000  -0.00000
   D31       -3.14159  -0.00000  -0.00000  -0.00000  -0.00000  -3.14159
   D32        0.00000  -0.00000  -0.00000  -0.00000  -0.00000   0.00000
         Item               Value     Threshold  Converged?
 Maximum Force            0.000810     0.000450     NO 
 RMS     Force            0.000203     0.000300     YES
 Maximum Displacement     0.002987     0.001800     NO 
 RMS     Displacement     0.000749     0.001200     YES
 Predicted change in Energy=-4.347675D-06
 GradGradGradGradGradGradGradGradGradGradGradGradGradGradGradGradGradGrad

                          Input orientation:                          
 ---------------------------------------------------------------------
 Center     Atomic      Atomic             Coordinates (Angstroms)
 Number     Number       Type             X           Y           Z
 ---------------------------------------------------------------------
      1          6           0        2.172233    0.465284   -0.049956
      2          6           0        0.673412    0.304166   -0.037795
      3          6           0       -0.195741    1.385688   -0.194638
      4          6           0       -1.584690    1.226093   -0.181933
      5          6           0       -2.126118   -0.045631   -0.008264
      6          6           0       -1.281385   -1.145950    0.151032
      7          6           0        0.103540   -0.970540    0.136094
      8          8           0        0.975863   -2.019220    0.288377
      9          1           0        2.619354    0.116463    0.888730
     10          1           0        2.631327   -0.126249   -0.851234
     11          1           0        2.450838    1.513713   -0.194287
     12          1           0        0.229946    2.377615   -0.330073
     13          1           0       -2.233151    2.088395   -0.306678
     14          1           0       -3.202984   -0.190562    0.004543
     15          1           0       -1.697561   -2.143312    0.287292
     16          1           0        0.465116   -2.835950    0.398789
 ---------------------------------------------------------------------
                    Distance matrix (angstroms):
                    1          2          3          4          5
     1  C    0.000000
     2  C    1.507505   0.000000
     3  C    2.544677   1.396323   0.000000
     4  C    3.835455   2.443307   1.398145   0.000000
     5  C    4.328810   2.821453   2.410345   1.393050   0.000000
     6  C    3.816274   2.441255   2.776203   2.414424   1.396299
     7  C    2.525014   1.407078   2.398075   2.788630   2.418195
     8  O    2.778224   2.365584   3.633092   4.160490   3.688540
     9  H    1.096688   2.163416   3.272519   4.477899   4.832223
    10  H    1.096688   2.163416   3.272520   4.477900   4.832223
    11  H    1.094375   2.155629   2.649674   4.045783   4.838872
    12  H    2.740065   2.140392   1.087875   2.154264   3.395103
    13  H    4.701894   3.421093   2.158098   1.086107   2.157446
    14  H    5.415355   3.908068   3.401139   2.158833   1.086651
    15  H    4.679082   3.423060   3.865431   3.403792   2.161314
    16  H    3.743496   3.177156   4.314060   4.586843   3.829630
                    6          7          8          9         10
     6  C    0.000000
     7  C    1.396069   0.000000
     8  O    2.424176   1.372540   0.000000
     9  H    4.165771   2.842069   2.760910   0.000000
    10  H    4.165770   2.842068   2.760908   1.756852   0.000000
    11  H    4.595927   3.433726   3.858773   1.775847   1.775847
    12  H    3.864078   3.382814   4.502336   3.508213   3.508215
    13  H    3.402402   3.874694   5.246366   5.372553   5.372554
    14  H    2.150992   3.399819   4.570264   5.897090   5.897090
    15  H    1.089266   2.154581   2.676302   4.909589   4.909587
    16  H    2.442898   1.918202   0.969588   3.687482   3.687480
                   11         12         13         14         15
    11  H    0.000000
    12  H    2.386865   0.000000
    13  H    4.720450   2.480130   0.000000
    14  H    5.908451   4.300293   2.496213   0.000000
    15  H    5.551122   4.953302   4.306622   2.481829   0.000000
    16  H    4.818133   5.269517   5.659284   4.539655   2.273620
                   16
    16  H    0.000000
 Stoichiometry    C7H8O
 Framework group  C1[X(C7H8O)]
 Deg. of freedom    42
 Full point group                 C1      NOp   1
 Largest Abelian subgroup         C1      NOp   1
 Largest concise Abelian subgroup C1      NOp   1
                         Standard orientation:                         
 ---------------------------------------------------------------------
 Center     Atomic      Atomic             Coordinates (Angstroms)
 Number     Number       Type             X           Y           Z
 ---------------------------------------------------------------------
      1          6           0       -1.980769   -1.223521    0.000000
      2          6           0       -0.590203   -0.641372   -0.000000
      3          6           0        0.554613   -1.440818   -0.000000
      4          6           0        1.840278   -0.891388    0.000000
      5          6           0        1.993053    0.493259    0.000000
      6          6           0        0.866235    1.317840    0.000000
      7          6           0       -0.411018    0.754249   -0.000000
      8          8           0       -1.549412    1.521012    0.000000
      9          1           0       -2.550611   -0.897375    0.878427
     10          1           0       -2.550612   -0.897372   -0.878425
     11          1           0       -1.945884   -2.317340   -0.000002
     12          1           0        0.432209   -2.521785   -0.000000
     13          1           0        2.710364   -1.541449    0.000000
     14          1           0        2.983737    0.939749    0.000000
     15          1           0        0.977954    2.401361    0.000000
     16          1           0       -1.294995    2.456626   -0.000000
 ---------------------------------------------------------------------
 Rotational constants (GHZ):           3.2683844           2.1895329           1.3218337
 Standard basis: 6-31G(d) (6D, 7F)
 There are   136 symmetry adapted cartesian basis functions of A   symmetry.
 There are   136 symmetry adapted basis functions of A   symmetry.
   136 basis functions,   256 primitive gaussians,   136 cartesian basis functions
    29 alpha electrons       29 beta electrons
       nuclear repulsion energy       347.4857733138 Hartrees.
 NAtoms=   16 NActive=   16 NUniq=   16 SFac= 1.00D+00 NAtFMM=   60 NAOKFM=F Big=F
 Integral buffers will be    131072 words long.
 Raffenetti 2 integral format.
 Two-electron integral symmetry is turned on.
 One-electron integrals computed using PRISM.
 NBasis=   136 RedAO= T EigKep=  4.28D-04  NBF=   136
 NBsUse=   136 1.00D-06 EigRej= -1.00D+00 NBFU=   136
 Initial guess from the checkpoint file:  "3_#_opt_freq_b3lyp_6-31G_d_geom_allcheck_guess_read.chk"
 B after Tr=    -0.000000    0.000000    0.000000
         Rot=    1.000000    0.000000    0.000000    0.000422 Ang=   0.05 deg.
 Requested convergence on RMS density matrix=1.00D-08 within 128 cycles.
 Requested convergence on MAX density matrix=1.00D-06.
 Requested convergence on             energy=1.00D-06.
 No special actions if energy rises.
 SCF Done:  E(RB3LYP) =  -346.783538750     A.U. after    9 cycles
            NFock=  9  Conv=0.28D-08     -V/T= 2.0096
 Calling FoFJK, ICntrl=      2127 FMM=F ISym2X=0 I1Cent= 0 IOpClX= 0 NMat=1 NMatS=1 NMatT=0.
 ***** Axes restored to original set *****
 -------------------------------------------------------------------
 Center     Atomic                   Forces (Hartrees/Bohr)
 Number     Number              X              Y              Z
 -------------------------------------------------------------------
      1        6           0.000021581    0.000056060   -0.000007663
      2        6           0.000036402   -0.000317316    0.000044514
      3        6          -0.000273538    0.000181029   -0.000027138
      4        6           0.000170652    0.000108966   -0.000014025
      5        6           0.000097718   -0.000143505    0.000020690
      6        6          -0.000272456   -0.000012577   -0.000000122
      7        6           0.000309388    0.000020331   -0.000000703
      8        8          -0.000049134    0.000201870   -0.000028500
      9        1           0.000007438   -0.000000797    0.000017646
     10        1           0.000007677   -0.000005580   -0.000016661
     11        1          -0.000003092   -0.000040730    0.000005660
     12        1          -0.000018395   -0.000022458    0.000003006
     13        1          -0.000030718   -0.000001534    0.000000003
     14        1          -0.000003481    0.000034131   -0.000004785
     15        1           0.000043532    0.000034736   -0.000004545
     16        1          -0.000043573   -0.000092627    0.000012622
 -------------------------------------------------------------------
 Cartesian Forces:  Max     0.000317316 RMS     0.000104229

 GradGradGradGradGradGradGradGradGradGradGradGradGradGradGradGradGradGrad
 Berny optimization.
 Using GEDIIS/GDIIS optimizer.
 FormGI is forming the generalized inverse of G from B-inverse, IUseBI=4.
 Internal  Forces:  Max     0.000236587 RMS     0.000050048
 Search for a local minimum.
 Step number   4 out of a maximum of   83
 All quantities printed in internal units (Hartrees-Bohrs-Radians)
 Mixed Optimization -- En-DIIS/RFO-DIIS
[...]

 Dipole orientation:
     6          2.31971114         -1.46156281         -3.18043985
     6          0.56345533         -0.35501234         -1.22938642
     6         -1.59872735          1.00729637         -1.88638556
     6         -3.21622353          2.02641981         -0.06269489
     6         -2.66935573          1.68186018          2.48920186
     6         -0.52004636          0.32766249          3.20260434
     6          1.07691981         -0.67852573          1.35942219
     8          3.21117803         -2.02324016          1.96282456
     1          4.24064122         -0.70986648         -2.98046857
     1          2.47085173         -3.51878763         -2.98046345
     1          1.65473759         -1.04259275         -5.09333911
     1         -2.02096069          1.27332867         -3.88067747
     1         -4.88331759          3.07679202         -0.63718963
     1         -3.90278537          2.45899773          3.93538922
     1         -0.08038115          0.05064693          5.19434337
     1          3.35429805         -2.11341456          3.78725589

 Electric dipole moment (dipole orientation):
 (Debye = 10**-18 statcoulomb cm , SI units = C m)
                  (au)            (Debye)         (10**-30 SI)
   Tot        0.455114D+00      0.115678D+01      0.385862D+01
   x          0.000000D+00      0.000000D+00      0.000000D+00
   y          0.000000D+00      0.000000D+00      0.000000D+00
   z          0.455114D+00      0.115678D+01      0.385862D+01

 Dipole polarizability, Alpha (dipole orientation).
 (esu units = cm**3 , SI units = C**2 m**2 J**-1)
 Alpha(0;0):
               (au)            (10**-24 esu)      (10**-40 SI)
   iso        0.713642D+02      0.105751D+02      0.117664D+02
   aniso      0.588821D+02      0.872543D+01      0.970835D+01
   xx         0.759846D+02      0.112598D+02      0.125282D+02
   yx        -0.275020D+02     -0.407537D+01     -0.453447D+01
   yy         0.496629D+02      0.735929D+01      0.818831D+01
   zx        -0.228850D+01     -0.339121D+00     -0.377323D+00
   zy         0.144192D+01      0.213670D+00      0.237740D+00
   zz         0.884451D+02      0.131062D+02      0.145826D+02

 ----------------------------------------------------------------------
 1\1\GINC-MACMINIM12022MAC-MINI-2\Freq\RB3LYP\6-31G(d)\C7H8O1\MACMINI_M
 1_2022\27-May-2024\0\\#N Geom=AllCheck Guess=TCheck SCRF=Check GenChk 
 RB3LYP/6-31G(d) Freq\\Smiles:Cc1ccccc1O\\0,1\C,2.172233174,0.465283588
 6,-0.0499561408\C,0.6734122476,0.3041662556,-0.0377948519\C,-0.1957411
 898,1.3856883085,-0.1946375863\C,-1.5846897572,1.2260928425,-0.1819325
 044\C,-2.1261178675,-0.0456312418,-0.0082642165\C,-1.2813850749,-1.145
 9497087,0.1510324194\C,0.1035397957,-0.970540012,0.1360937298\O,0.9758
 627483,-2.0192196369,0.2883771365\H,2.619354041,0.1164626573,0.8887300
 151\H,2.631326703,-0.1262492731,-0.8512343318\H,2.4508379471,1.5137131
 602,-0.1942870271\H,0.2299464428,2.3776152216,-0.3300731928\H,-2.23315
 10428,2.0883948647,-0.3066775671\H,-3.2029841819,-0.1905622704,0.00454
 26534\H,-1.6975606782,-2.143311754,0.287291579\H,0.465115693,-2.835950
 0065,0.3987888546\\Version=EM64M-G16RevA.03\State=1-A\HF=-346.7835387\
 RMSD=1.192e-09\RMSF=1.042e-04\ZeroPoint=0.1326766\Thermal=0.1398263\Di
 pole=-0.274429,-0.3598386,0.0483057\DipoleDeriv=0.0455687,0.0276702,-0
 .0042691,0.075875,0.1431572,-0.0047898,-0.0109937,-0.0051215,0.1057164
 ,0.2413095,-0.0142018,0.003974,0.2258091,-0.2482562,0.0294424,-0.02950
 5,0.027791,-0.0524039,0.0863648,0.0408651,-0.0042833,-0.0205363,0.1368
 506,-0.0359098,0.0042816,-0.0354873,-0.1145915,-0.145528,-0.0862741,0.
 011984,-0.1533162,-0.0391845,-0.0148668,0.0213358,-0.0144055,-0.136044
 4,0.0966816,-0.0515533,0.0085966,0.1241555,0.1049893,-0.0287949,-0.015
 9132,-0.0300039,-0.103488,-0.141275,0.2896191,-0.0401477,-0.0064953,-0
 .0158035,-0.022645,0.0011575,-0.0206075,-0.1749415,0.3924809,-0.621854
 1,0.0885782,-0.5999828,0.8903843,-0.1107888,0.0855274,-0.1109394,0.141
 8059,-0.5849311,0.6357022,-0.0899854,0.5453657,-0.9955175,0.0876015,-0
 .0773844,0.0882232,-0.4072487,-0.0561426,-0.0035792,-0.0476161,0.01153
 09,0.0580167,0.0572146,-0.0877054,0.0401292,-0.0690713,-0.0579533,0.01
 03304,0.0466106,0.0360633,0.0229627,-0.0828075,0.0810027,-0.0660031,-0
 .0322062,0.008771,-0.006782,0.0005344,-0.0956216,-0.1266142,0.0265725,
 0.0129268,0.0271838,0.064894,0.0237444,-0.0857785,0.0114291,-0.0678751
 ,-0.0852169,0.0256021,0.0089318,0.025479,0.0981785,-0.0180515,0.081399
 5,-0.0122968,0.0902358,-0.0576095,0.0252432,-0.0135294,0.0251824,0.115
 3006,-0.1236453,-0.020433,0.0012323,-0.0306856,0.0577071,0.0072921,0.0
 026624,0.0073627,0.1104888,0.0368518,-0.0318561,0.0038734,-0.0548282,-
 0.1382423,0.0356061,0.0070778,0.0357642,0.1147801,0.1957541,-0.1632745
 ,0.021786,-0.0796943,0.2923768,0.0060279,0.0101274,0.0054528,0.338831\
 Polar=94.1421546,-1.5300294,86.5547106,0.6387087,-7.573677,33.3958378\
 Quadrupole=-0.5922848,4.3091064,-3.7168216,1.7260186,-0.2181908,-1.129
 4318\PG=C01 [X(C7H8O1)]\NImag=0\\0.49029718,-0.00349784,0.59240518,0.0
 0011939,-0.00679737,0.54479671,-0.21112317,-0.01907774,0.00169764,0.65
 894220,-0.01289728,-0.09228576,0.00286808,-0.02732269,0.66963720,0.000
 83550,0.00282555,-0.07147690,0.00722208,-0.07082551,0.17317074,-0.0257
 0740,0.02501707,-0.00369548,-0.20688956,0.06828339,-0.01054382,0.69332
 175,0.00226503,0.00666314,-0.00032688,0.13415601,-0.25430909,0.0281937
 0,0.02298850,0.70988985,-0.00052179,-0.00017033,0.00422815,-0.01973243
 ,0.02774045,-0.06281324,0.00065564,-0.08045228,0.14322571,0.00253753,0
 .00169758,-0.00027581,-0.03651349,0.06663347,-0.00957869,-0.33295461,-
 0.05557947,0.00585902,0.69218518,0.00167321,-0.00306117,0.00158352,0.0
 2033529,0.04280839,-0.00516863,0.00914850,-0.12864854,0.00995642,-0.03
 402254,0.71486331,-0.00027242,0.00158369,0.00798565,-0.00312052,-0.004
 85007,0.00540677,-0.00316993,0.00951104,-0.05907140,0.00867917,-0.0831
 3658,0.13219736,-0.00113330,0.00135239,-0.00019034,0.00056421,0.004610
 98,-0.00062132,-0.01602087,-0.03260527,0.00439288,-0.15975883,-0.11042
 163,0.01469666,0.74175860,-0.00023624,-0.00110924,0.00002914,0.0070778
 9,-0.06377350,0.00857995,-0.08320543,0.01673124,-0.00199368,-0.0465036
 1,-0.30949943,0.03488259,0.01395280,0.66865278,0.00003127,0.00004007,-
 0.00089407,-0.00096544,0.00856298,-0.00381463,0.01145113,-0.00164552,0
 .00685128,0.00578069,0.03444279,-0.06189914,0.00229375,-0.07566290,0.1
 3611217,0.00225273,-0.00165852,0.00021089,-0.01163958,-0.07230056,0.00
 996581,-0.05482809,0.01713585,-0.00273512,0.05747915,0.03977245,-0.005
 20058,-0.20569006,0.07322177,-0.01127086,0.68341045,-0.00000736,-0.005
 99805,0.00156579,-0.02958082,0.02134157,-0.00238258,0.02368948,-0.0111
 8911,0.00106632,-0.00879567,-0.05530245,0.00863073,0.13630889,-0.25928
 458,0.02984403,0.00797360,0.72344385,-0.00001944,0.00155443,0.00501039
 ,0.00400680,-0.00267652,0.00612114,-0.00364929,0.00102122,-0.00488085,
 0.00157422,0.00896491,0.00576486,-0.02007093,0.02940995,-0.05629898,0.
 00281384,-0.08512115,0.12471550,-0.01679310,-0.03005081,0.00404638,-0.
 15894298,-0.03991656,0.00496492,0.06588550,-0.00445666,0.00106210,-0.0
 4401691,-0.03792498,0.00501227,-0.04046940,0.07263930,-0.01040899,-0.3
 1868952,-0.07767436,0.00904905,0.71087171,-0.01164990,-0.00087267,0.00
 064705,-0.11005728,-0.25145744,0.02437344,0.04431907,-0.05426009,0.008
 13523,-0.03699096,-0.02625481,0.00290192,0.01992224,0.05172480,-0.0071
 1822,0.00116616,-0.13619307,0.01075417,0.01309223,0.68082643,0.0014796
 4,0.00052043,0.00427823,0.01474890,0.02485606,-0.07466265,-0.00574166,
 0.00779962,0.00074723,0.00488198,0.00289550,-0.00399675,-0.00305545,-0
 .00675550,0.00063330,-0.00194847,0.01021169,-0.06059248,0.00201405,-0.
 07357115,0.16303014,-0.00055923,-0.00341502,0.00049936,0.01388555,-0.0
 0379424,0.00057983,-0.00522967,-0.00432520,0.00053515,0.00018872,0.005
 07155,-0.00069739,-0.00198472,-0.00918209,0.00121438,-0.03744824,0.047
 55983,-0.00694412,-0.19137560,0.06817053,-0.01054390,0.39835118,0.0037
 3899,0.00081200,-0.00063145,0.02975676,-0.05394517,0.00864131,-0.00903
 722,0.00144483,0.00038885,0.00588935,-0.00086610,-0.00001592,-0.002186
 62,-0.00247897,0.00140082,0.00923801,-0.00338952,0.00159645,0.12134121
 ,-0.21499102,0.02510562,0.07591721,0.61955111,-0.00049857,-0.00068068,
 -0.00380773,-0.00410022,0.00841046,0.00533458,0.00119244,0.00042127,0.
 00462767,-0.00081147,-0.00002155,-0.00127331,0.00023857,0.00135269,0.0
 0748426,-0.00159858,0.00186013,0.00732914,-0.01796071,0.02473975,-0.04
 457052,-0.00804148,-0.08199089,0.03939981,-0.08685757,0.03198544,-0.09
 058069,-0.01703881,0.01120904,-0.02784205,-0.00252076,-0.00252730,-0.0
 0036844,-0.00082346,0.00037028,0.00153352,-0.00036555,0.00040558,-0.00
 026701,0.00028854,0.00045549,0.00095140,-0.00120638,0.00290226,-0.0001
 9609,0.00155272,-0.00163782,-0.00005947,0.09813330,0.03053770,-0.07550
 379,0.07330287,0.00107957,0.00126057,-0.00433258,0.00026896,0.00003392
 ,0.00008707,0.00010660,-0.00018823,-0.00017682,-0.00037242,0.00026973,
 -0.00013043,0.00081709,0.00010592,0.00037197,-0.00197494,-0.00010375,-
 0.00030345,0.00050231,-0.00003154,-0.00031217,-0.03637796,0.07636438,-
 0.08889039,0.07294752,-0.24156410,-0.00064287,-0.00181748,0.00456838,0
 .00068484,-0.00065597,-0.00026461,-0.00006614,-0.00023444,-0.00018462,
 0.00002538,0.00008973,-0.00003124,0.00001760,-0.00023841,-0.00019446,-
 0.00077598,0.00203069,0.00068478,0.00090302,-0.00050318,0.00011537,0.0
 9770427,-0.08038869,0.26139149,-0.08918671,0.05704572,0.07993961,-0.01
 739628,0.01833032,0.02343169,-0.00252036,-0.00234205,0.00101762,-0.000
 80265,-0.00006764,-0.00158347,-0.00036868,0.00046426,0.00014103,0.0003
 0393,0.00017592,-0.00103294,-0.00121736,0.00286638,-0.00063780,0.00156
 168,-0.00156279,0.00052740,0.00582361,-0.00770770,-0.00933274,0.100659
 44,0.05519565,-0.12622657,-0.10517550,0.00111152,0.00316383,0.00480275
 ,0.00006902,0.00015704,-0.00020537,0.00011727,-0.00007961,0.00014560,-
 0.00036694,0.00025808,0.00004349,0.00078744,0.00005008,-0.00043240,-0.
 00169702,-0.00049714,0.00061634,0.00023463,0.00019157,0.00029393,-0.00
 497410,0.00596340,0.00842813,-0.06336257,0.13230428,0.07870935,-0.1047
 9744,-0.18851227,0.00004738,0.00247583,0.00302260,-0.00076203,0.000501
 85,-0.00038815,0.00002718,0.00020376,-0.00031405,0.00007311,-0.0001655
 9,-0.00001646,-0.00023490,0.00017128,-0.00015401,0.00125897,-0.0016528
 5,0.00108915,-0.00098435,0.00045785,-0.00011671,0.01149827,-0.01659265
 ,-0.02241202,-0.08565197,0.11604569,0.20292556,-0.06493379,-0.06008206
 ,0.00827966,-0.00960989,-0.03383864,0.00466287,0.00207442,-0.00215078,
 0.00031551,-0.00015782,0.00004694,-0.00000630,0.00013681,0.00022694,-0
 .00003111,0.00034659,-0.00187022,0.00026099,-0.00673526,0.00164004,-0.
 00028195,0.00050934,0.00075112,-0.00010258,0.00315156,0.01301539,0.000
 11061,0.00328462,0.01284726,-0.00369453,0.07251320,-0.06347919,-0.2956
 5123,0.03380100,-0.00020776,-0.00229822,0.00014152,0.00239554,0.000453
 41,-0.00007151,-0.00043729,0.00024831,-0.00006469,0.00010750,0.0002878
 3,-0.00003135,0.00017240,-0.00026109,0.00008365,0.00028382,0.00013241,
 0.00012213,-0.00064578,0.00009880,0.00000844,-0.00173340,-0.00852440,0
 .00046377,-0.00391936,-0.01548578,0.00326322,0.06813968,0.32008821,0.0
 0875353,0.03382438,-0.05486362,-0.00002839,-0.00008990,-0.00126109,-0.
 00031866,-0.00010279,-0.00016528,0.00006125,-0.00006135,-0.00018487,-0
 .00001445,-0.00003053,0.00006192,-0.00002394,0.00006959,0.00032021,-0.
 00009277,0.00013145,0.00097492,0.00009227,0.00001805,0.00018932,0.0081
 9596,0.02784794,-0.00219302,-0.00738371,-0.02390409,0.00463530,-0.0093
 2998,-0.03761328,0.05226559,0.00151915,0.00161562,-0.00018273,0.009208
 32,0.01780560,-0.00244431,-0.10156119,-0.09831592,0.01326330,-0.007132
 51,-0.03060586,0.00420427,-0.00599000,0.00069766,-0.00018183,-0.000672
 28,0.00092445,-0.00013141,-0.00236998,0.00257448,-0.00042424,0.0007320
 0,0.00096200,-0.00013049,0.00002290,-0.00001916,0.00004255,0.00001427,
 -0.00002586,-0.00003747,-0.00017518,-0.00037335,0.00004901,0.10590604,
 -0.00211144,0.00045743,-0.00073079,-0.01170692,-0.02037915,0.00324769,
 -0.09719899,-0.28766659,0.03443135,0.00052523,0.00007911,0.00031456,-0
 .00064438,0.00185991,0.00061381,0.00083904,0.00024925,-0.00007290,0.00
 382982,-0.00085292,0.00113491,-0.00056594,-0.00152663,0.00023624,0.000
 01498,0.00033218,-0.00006298,0.00020041,0.00025205,0.00001241,0.001288
 59,0.00072950,-0.00005504,0.10569054,0.30618662,0.00033716,-0.00070515
 ,-0.00457676,0.00167242,0.00345076,0.00301096,0.01310750,0.03442366,-0
 .04074758,-0.00013823,0.00010035,0.00229330,0.00000538,0.00062304,0.00
 620517,-0.00011950,-0.00007231,-0.00030550,-0.00059935,0.00112628,0.00
 693306,0.00008264,0.00024675,0.00016103,-0.00068188,0.00029256,0.00006
 473,0.00065064,-0.00034491,0.00015348,-0.00018282,-0.00006647,0.000279
 39,-0.01418985,-0.03842096,0.03079763,-0.00015566,0.00126087,-0.000179
 96,-0.00470908,-0.00269751,0.00029861,-0.01408565,0.02730909,-0.003910
 07,-0.15966475,0.13283837,-0.01941493,0.01153517,-0.01153686,0.0016834
 7,-0.00036665,-0.00248311,0.00029722,-0.00076416,-0.00126856,0.0001749
 5,0.00020156,0.00030337,-0.00003603,-0.00032833,0.00001962,0.00000420,
 -0.00032652,0.00001750,-0.00001419,0.00003992,-0.00006046,0.00000900,0
 .00104726,-0.00034991,0.00008098,0.16628228,-0.00017511,0.00015551,0.0
 0003822,-0.00134597,0.00115581,0.00074718,-0.00429376,0.00663673,-0.00
 087861,0.13269020,-0.23566716,0.02946013,0.01997611,-0.01832376,0.0027
 9849,-0.00386097,-0.00329797,0.00137863,-0.00109104,-0.00006742,-0.000
 06414,0.00030639,0.00009516,-0.00011052,0.00002351,0.00000396,-0.00000
 480,-0.00001080,-0.00000280,0.00001085,0.00001588,0.00001201,-0.000007
 38,0.00042257,0.00075238,-0.00060813,-0.14324801,0.24860436,0.00002034
 ,0.00004810,0.00043158,0.00011008,0.00073788,0.00647653,0.00049824,-0.
 00066116,0.00064547,-0.01939427,0.02946116,-0.03525771,-0.00271229,0.0
 0258165,0.00037426,0.00048942,0.00138811,0.00658556,0.00015019,-0.0000
 6536,-0.00046323,-0.00003645,-0.00011054,-0.00069711,0.00011934,0.0000
 3482,0.00001902,-0.00012592,-0.00002860,0.00002396,-0.00000165,-0.0000
 0790,-0.00004057,-0.00002677,-0.00061344,-0.00354270,0.02096054,-0.032
 31088,0.02868717,0.00003234,-0.00004372,0.00001273,0.00058293,0.000248
 13,-0.00002487,0.00114411,-0.00263736,0.00032764,-0.00819442,0.0009149
 1,-0.00019862,-0.33386874,-0.03656773,0.00303659,-0.01499052,-0.004878
 44,0.00056721,0.00090166,0.00327263,-0.00049959,-0.00140541,0.00021754
 ,-0.00004181,-0.00002131,0.00003406,-0.00000605,-0.00002309,0.00003476
 ,-0.00000453,0.00000315,-0.00001870,0.00000242,-0.00055539,0.00006172,
 -0.00001483,0.00085717,-0.00027319,0.00007090,0.35455420,-0.00005868,0
 .00012626,-0.00014794,0.00038921,-0.00114050,0.00004561,-0.00112720,-0
 .00521969,0.00169589,-0.03013401,0.00209675,-0.00020358,-0.03677023,-0
 .06481272,0.00406421,0.02604716,0.00711695,-0.00060800,0.00183393,-0.0
 0380497,0.00154257,0.00170913,0.00006359,0.00003936,-0.00005131,0.0000
 2397,-0.00000696,-0.00001574,0.00001709,0.00001435,0.00008521,0.000044
 34,-0.00000139,-0.00163402,-0.00009161,0.00005015,0.00052812,0.0009645
 3,-0.00067608,0.03966581,0.06337773,0.00001482,-0.00014784,-0.00091068
 ,-0.00004455,0.00004464,-0.00083928,0.00011698,0.00168550,0.00675934,0
 .00413242,0.00001006,0.00215079,0.00306484,0.00406561,-0.03440888,-0.0
 0374662,-0.00082079,0.00156210,-0.00029890,0.00155247,0.00694457,-0.00
 024988,0.00002910,0.00025568,-0.00012381,0.00003886,0.00004379,0.00013
 218,-0.00003054,0.00005244,-0.00001207,-0.00000210,0.00003039,0.000221
 71,0.00006182,0.00034141,-0.00004088,-0.00068159,-0.00381348,-0.003264
 04,-0.00510844,0.02548914,0.00021379,-0.00172855,0.00024207,-0.0057414
 2,0.00094168,-0.00020816,-0.00125984,0.00093141,-0.00013734,-0.0020389
 8,0.00309629,-0.00048975,0.01231642,0.01861737,-0.00251684,-0.10145148
 ,-0.09655302,0.01297264,-0.00772249,-0.03012286,0.00413083,0.00302016,
 -0.00142691,0.00024531,0.00001042,0.00002129,-0.00006038,0.00000879,0.
 00003673,0.00005250,-0.00056276,-0.00006359,0.00000617,0.00013669,-0.0
 0008311,0.00001801,0.00048793,0.00104210,-0.00014665,0.00091312,-0.000
 44847,0.00009441,0.10294199,0.00023304,-0.00012665,0.00002977,-0.00057
 169,0.00199248,0.00047437,0.00059218,0.00047087,-0.00008701,0.00463865
 ,-0.00153260,0.00113405,-0.01267291,-0.01918036,0.00268220,-0.09637358
 ,-0.28315897,0.03473077,0.00271995,-0.00545601,0.00114246,-0.00011239,
 0.00378079,-0.00104482,-0.00012677,-0.00002902,-0.00003333,-0.00011000
 ,-0.00001314,0.00003586,-0.00009597,0.00000893,-0.00002565,-0.00014308
 ,-0.00009663,-0.00009849,-0.00068277,-0.00111083,0.00024430,0.00023200
 ,0.00101009,-0.00065769,0.10411872,0.30326060,-0.00003155,0.00001627,0
 .00007278,0.00000294,0.00048478,0.00535379,-0.00009002,-0.00008467,-0.
 00017091,-0.00070490,0.00112344,0.00620695,0.00184787,0.00289750,0.000
 28185,0.01294761,0.03472954,-0.03417778,-0.00045043,0.00091648,0.00246
 912,0.00006194,-0.00105387,-0.00355650,-0.00004524,-0.00001903,0.00000
 073,0.00007848,0.00002358,-0.00001352,0.00001069,-0.00002543,-0.000166
 60,0.00002637,-0.00009808,-0.00078179,0.00009396,0.00025617,0.00063914
 ,-0.00000051,-0.00066237,-0.00362388,-0.01396449,-0.03856065,0.0269686
 6,-0.00040280,-0.00042043,0.00005729,-0.00357893,0.00470486,-0.0006980
 8,0.00115223,0.00015412,-0.00002367,-0.00033216,-0.00022512,0.00002802
 ,-0.00066105,-0.00007162,0.00000976,0.00169503,0.00475534,-0.00064524,
 0.01264427,0.03016353,-0.00410120,-0.18200003,-0.23226421,0.03117771,0
 .00017913,0.00004960,0.00028206,0.00018530,-0.00002529,-0.00028281,0.0
 0011510,-0.00016006,0.00002231,-0.00013009,0.00021033,-0.00002827,-0.0
 0005047,-0.00017790,0.00002496,0.00007021,-0.00001891,0.00000339,-0.00
 127234,-0.00164540,0.00021729,0.17238661,0.00046942,0.00021560,-0.0000
 5551,0.00596462,-0.00177101,0.00063623,-0.00190910,-0.00118792,0.00035
 722,0.00016518,0.00100423,-0.00011667,-0.00019052,-0.00132180,0.000095
 53,-0.00297733,0.00576718,-0.00095519,-0.02095391,-0.03787233,0.004746
 89,-0.17743092,-0.34880891,0.04679835,0.00006209,0.00002271,-0.0000136
 0,0.00001564,-0.00005237,0.00001559,-0.00001939,0.00011697,-0.00000001
 ,0.00042432,-0.00028488,0.00000287,0.00005024,0.00008949,-0.00002206,-
 0.00026243,0.00022820,-0.00003907,0.00162093,0.00018045,0.00005633,0.1
 9497115,0.38367438,-0.00006684,-0.00006163,-0.00019737,-0.00087381,0.0
 0062756,0.00240231,0.00026413,0.00037142,0.00141716,-0.00002642,-0.000
 11935,0.00017617,0.00002635,0.00009635,-0.00064082,0.00043340,-0.00090
 198,-0.00080483,0.00302920,0.00509864,-0.00349886,0.02352898,0.0464210
 3,-0.01087497,0.00016190,0.00027972,-0.00004421,-0.00017010,-0.0002781
 0,0.00002470,0.00000269,-0.00000098,0.00011799,-0.00005812,0.00000140,
 -0.00028583,-0.00000687,-0.00002363,-0.00006788,0.00003736,-0.00003739
 ,-0.00003344,-0.00023833,0.00003385,0.00049795,-0.02604351,-0.05150691
 ,0.01181192\\-0.00002157,-0.00005604,0.00000766,-0.00003643,0.00031736
 ,-0.00004452,0.00027353,-0.00018104,0.00002714,-0.00017064,-0.00010896
 ,0.00001403,-0.00009772,0.00014352,-0.00002069,0.00027244,0.00001256,0
 .00000012,-0.00030939,-0.00002034,0.00000070,0.00004914,-0.00020189,0.
 00002850,-0.00000743,0.00000079,-0.00001764,-0.00000767,0.00000557,0.0
 0001666,0.00000309,0.00004072,-0.00000566,0.00001839,0.00002245,-0.000
 00301,0.00003072,0.00000153,0.,0.00000348,-0.00003413,0.00000479,-0.00
 004353,-0.00003473,0.00000455,0.00004357,0.00009263,-0.00001262\\\@


 WERE I TO AWAIT PERFECTION, MY BOOK WOULD NEVER BE FINISHED.
                                    -- HISTORY OF CHINESE WRITING

                                       TAI T'UNG, 13TH CENTURY
 Job cpu time:       0 days  0 hours  0 minutes 37.0 seconds.
 Elapsed time:       0 days  0 hours  0 minutes 38.1 seconds.
 File lengths (MBytes):  RWF=     40 Int=      0 D2E=      0 Chk=      3 Scr=      1
 Normal termination of Gaussian 16 at Mon May 27 12:02:45 2024.
