 Entering Gaussian System, Link 0=g16
 Input=/Users/macmini_m1_2022/Poclab/ichizawa/Gaussian/20240527_1_500/3_#_mp2_6-31G_d_geom_allcheck_guess_read.gjf
 Output=/Users/macmini_m1_2022/Poclab/ichizawa/Gaussian/20240527_1_500/3_#_mp2_6-31G_d_geom_allcheck_guess_read.log
 Initial command:
 /Applications/g16/l1.exe "/Users/macmini_m1_2022/Poclab/ichizawa/Gaussian/20240527_1_500/Gau-63145.inp" -scrdir="/Users/macmini_m1_2022/Poclab/ichizawa/Gaussian/20240527_1_500/"
 Entering Link 1 = /Applications/g16/l1.exe PID=     63146.
  
 Copyright (c) 1988,1990,1992,1993,1995,1998,2003,2009,2016,
            Gaussian, Inc.  All Rights Reserved.
  
 This is part of the Gaussian(R) 16 program.  It is based on
 the Gaussian(R) 09 system (copyright 2009, Gaussian, Inc.),
 the Gaussian(R) 03 system (copyright 2003, Gaussian, Inc.),
 the Gaussian(R) 98 system (copyright 1998, Gaussian, Inc.),
 the Gaussian(R) 94 system (copyright 1995, Gaussian, Inc.),
 the Gaussian 92(TM) system (copyright 1992, Gaussian, Inc.),
 the Gaussian 90(TM) system (copyright 1990, Gaussian, Inc.),
 the Gaussian 88(TM) system (copyright 1988, Gaussian, Inc.),
 the Gaussian 86(TM) system (copyright 1986, Carnegie Mellon
 University), and the Gaussian 82(TM) system (copyright 1983,
 Carnegie Mellon University). Gaussian is a federally registered
 trademark of Gaussian, Inc.
  
 This software contains proprietary and confidential information,
 including trade secrets, belonging to Gaussian, Inc.
  
 This software is provided under written license and may be
 used, copied, transmitted, or stored only in accord with that
 written license.
  
 The following legend is applicable only to US Government
 contracts under FAR:
  
                    RESTRICTED RIGHTS LEGEND
  
 Use, reproduction and disclosure by the US Government is
 subject to restrictions as set forth in subparagraphs (a)
 and (c) of the Commercial Computer Software - Restricted
 Rights clause in FAR 52.227-19.
  
 Gaussian, Inc.
 340 Quinnipiac St., Bldg. 40, Wallingford CT 06492
  
  
 ---------------------------------------------------------------
 Warning -- This program may not be used in any manner that
 competes with the business of Gaussian, Inc. or will provide
 assistance to any competitor of Gaussian, Inc.  The licensee
 of this program is prohibited from giving any competitor of
 Gaussian, Inc. access to this program.  By using this program,
 the user acknowledges that Gaussian, Inc. is engaged in the
 business of creating and licensing software in the field of
 computational chemistry and represents and warrants to the
 licensee that it is not a competitor of Gaussian, Inc. and that
 it will not use this program in any manner prohibited above.
 ---------------------------------------------------------------
  

 Cite this work as:
 Gaussian 16, Revision A.03,
 M. J. Frisch, G. W. Trucks, H. B. Schlegel, G. E. Scuseria, 
 M. A. Robb, J. R. Cheeseman, G. Scalmani, V. Barone, 
 G. A. Petersson, H. Nakatsuji, X. Li, M. Caricato, A. V. Marenich, 
 J. Bloino, B. G. Janesko, R. Gomperts, B. Mennucci, H. P. Hratchian, 
 J. V. Ortiz, A. F. Izmaylov, J. L. Sonnenberg, D. Williams-Young, 
 F. Ding, F. Lipparini, F. Egidi, J. Goings, B. Peng, A. Petrone, 
 T. Henderson, D. Ranasinghe, V. G. Zakrzewski, J. Gao, N. Rega, 
 G. Zheng, W. Liang, M. Hada, M. Ehara, K. Toyota, R. Fukuda, 
 J. Hasegawa, M. Ishida, T. Nakajima, Y. Honda, O. Kitao, H. Nakai, 
 T. Vreven, K. Throssell, J. A. Montgomery, Jr., J. E. Peralta, 
 F. Ogliaro, M. J. Bearpark, J. J. Heyd, E. N. Brothers, K. N. Kudin, 
 V. N. Staroverov, T. A. Keith, R. Kobayashi, J. Normand, 
 K. Raghavachari, A. P. Rendell, J. C. Burant, S. S. Iyengar, 
 J. Tomasi, M. Cossi, J. M. Millam, M. Klene, C. Adamo, R. Cammi, 
 J. W. Ochterski, R. L. Martin, K. Morokuma, O. Farkas, 
 J. B. Foresman, and D. J. Fox, Gaussian, Inc., Wallingford CT, 2016.
 
 ******************************************
 Gaussian 16:  EM64M-G16RevA.03 25-Dec-2016
                27-May-2024 
 ******************************************
 %Mem=16GB
 %Nprocshared=10
 Will use up to   10 processors via shared memory.
 %oldchk=3_#_m062x_6-311G_d_p_geom_allcheck_guess_read.chk
 %chk=3_#_mp2_6-31G_d_geom_allcheck_guess_read.chk
 Copying data from "3_#_m062x_6-311G_d_p_geom_allcheck_guess_read.chk" to current chk file "3_#_mp2_6-31G_d_geom_allcheck_guess_read.chk"
 IOpt=  2 FromEx=T IUOpen= 4 IOptOp= 5 NList=   0 IFRang= 0 IUIn= 4 IUOut= 2.
 ---------------------------------------
 # mp2/6-31G(d) geom=allcheck guess=read
 ---------------------------------------
 1/29=7,38=1,172=1/1;
 2/12=2,40=1/2;
 3/5=1,6=6,7=1,11=9,14=-4,25=1,30=1,116=-2/1,2,3;
 4/5=1/1;
 5/5=2,38=6/2;
 8/10=2/1;
 9/16=-3/6;
 6/7=2,8=2,9=2,10=2/1;
 99/5=1,9=1/99;
 Structure from the checkpoint file:  "3_#_mp2_6-31G_d_geom_allcheck_guess_read.chk"
 -----------------
 Smiles:Cc1ccccc1O
 -----------------
 Charge =  0 Multiplicity = 1
 Redundant internal coordinates found in file.  (old form).
 C,0,2.172233174,0.4652835885,-0.0499561411
 C,0,0.6734122476,0.3041662556,-0.0377948519
 C,0,-0.1957411898,1.3856883085,-0.1946375863
 C,0,-1.5846897572,1.2260928425,-0.1819325044
 C,0,-2.1261178675,-0.0456312418,-0.0082642165
 C,0,-1.2813850749,-1.1459497086,0.1510324196
 C,0,0.1035397957,-0.970540012,0.1360937298
 O,0,0.9758627483,-2.0192196369,0.2883771365
 H,0,2.619354041,0.1164626573,0.8887300151
 H,0,2.631326703,-0.1262492731,-0.8512343318
 H,0,2.4508379471,1.5137131602,-0.1942870271
 H,0,0.2299464428,2.3776152216,-0.3300731928
 H,0,-2.2331510428,2.0883948647,-0.3066775671
 H,0,-3.2029841819,-0.1905622704,0.0045426534
 H,0,-1.6975606782,-2.143311754,0.2872915792
 H,0,0.465115693,-2.8359500065,0.3987888546
 Recover connectivity data from disk.
                           ----------------------------
                           !    Current Parameters    !
                           ! (Angstroms and Degrees)  !
 --------------------------                            --------------------------
 ! Name  Definition              Value                                          !
 --------------------------------------------------------------------------------
 ! R1    R(1,2)                  1.5075                                         !
 ! R2    R(1,9)                  1.0967                                         !
 ! R3    R(1,10)                 1.0967                                         !
 ! R4    R(1,11)                 1.0944                                         !
 ! R5    R(2,3)                  1.3963                                         !
 ! R6    R(2,7)                  1.4071                                         !
 ! R7    R(3,4)                  1.3981                                         !
 ! R8    R(3,12)                 1.0879                                         !
 ! R9    R(4,5)                  1.393                                          !
 ! R10   R(4,13)                 1.0861                                         !
 ! R11   R(5,6)                  1.3963                                         !
 ! R12   R(5,14)                 1.0867                                         !
 ! R13   R(6,7)                  1.3961                                         !
 ! R14   R(6,15)                 1.0893                                         !
 ! R15   R(7,8)                  1.3725                                         !
 ! R16   R(8,16)                 0.9696                                         !
 ! A1    A(2,1,9)              111.374                                          !
 ! A2    A(2,1,10)             111.374                                          !
 ! A3    A(2,1,11)             110.8895                                         !
 ! A4    A(9,1,10)             106.4477                                         !
 ! A5    A(9,1,11)             108.2887                                         !
 ! A6    A(10,1,11)            108.2887                                         !
 ! A7    A(1,2,3)              122.3565                                         !
 ! A8    A(1,2,7)              120.0325                                         !
 ! A9    A(3,2,7)              117.611                                          !
 ! A10   A(2,3,4)              121.9332                                         !
 ! A11   A(2,3,12)             118.4669                                         !
 ! A12   A(4,3,12)             119.5999                                         !
 ! A13   A(3,4,5)              119.4357                                         !
 ! A14   A(3,4,13)             120.0962                                         !
 ! A15   A(5,4,13)             120.4681                                         !
 ! A16   A(4,5,6)              119.8996                                         !
 ! A17   A(4,5,14)             120.5568                                         !
 ! A18   A(6,5,14)             119.5436                                         !
 ! A19   A(5,6,7)              119.9946                                         !
 ! A20   A(5,6,15)             120.3091                                         !
 ! A21   A(7,6,15)             119.6963                                         !
 ! A22   A(2,7,6)              121.1258                                         !
 ! A23   A(2,7,8)              116.6459                                         !
 ! A24   A(6,7,8)              122.2283                                         !
 ! A25   A(7,8,16)             108.7498                                         !
 ! D1    D(9,1,2,3)            120.6676                                         !
 ! D2    D(9,1,2,7)            -59.3324                                         !
 ! D3    D(10,1,2,3)          -120.6678                                         !
 ! D4    D(10,1,2,7)            59.3322                                         !
 ! D5    D(11,1,2,3)            -0.0001                                         !
 ! D6    D(11,1,2,7)           179.9999                                         !
 ! D7    D(1,2,3,4)           -180.0                                            !
 ! D8    D(1,2,3,12)             0.0                                            !
 ! D9    D(7,2,3,4)              0.0                                            !
 ! D10   D(7,2,3,12)          -180.0                                            !
 ! D11   D(1,2,7,6)            180.0                                            !
 ! D12   D(1,2,7,8)              0.0                                            !
 ! D13   D(3,2,7,6)              0.0                                            !
 ! D14   D(3,2,7,8)           -180.0                                            !
 ! D15   D(2,3,4,5)              0.0                                            !
 ! D16   D(2,3,4,13)          -180.0                                            !
 ! D17   D(12,3,4,5)           180.0                                            !
 ! D18   D(12,3,4,13)            0.0                                            !
 ! D19   D(3,4,5,6)              0.0                                            !
 ! D20   D(3,4,5,14)           180.0                                            !
 ! D21   D(13,4,5,6)           180.0                                            !
 ! D22   D(13,4,5,14)            0.0                                            !
 ! D23   D(4,5,6,7)              0.0                                            !
 ! D24   D(4,5,6,15)           180.0                                            !
 ! D25   D(14,5,6,7)           180.0                                            !
 ! D26   D(14,5,6,15)            0.0                                            !
 ! D27   D(5,6,7,2)              0.0                                            !
 ! D28   D(5,6,7,8)            180.0                                            !
 ! D29   D(15,6,7,2)           180.0                                            !
 ! D30   D(15,6,7,8)             0.0                                            !
 ! D31   D(2,7,8,16)          -180.0                                            !
 ! D32   D(6,7,8,16)             0.0                                            !
 --------------------------------------------------------------------------------
                          Input orientation:                          
 ---------------------------------------------------------------------
 Center     Atomic      Atomic             Coordinates (Angstroms)
 Number     Number       Type             X           Y           Z
 ---------------------------------------------------------------------
      1          6           0        2.172233    0.465284   -0.049956
      2          6           0        0.673412    0.304166   -0.037795
      3          6           0       -0.195741    1.385688   -0.194638
      4          6           0       -1.584690    1.226093   -0.181933
      5          6           0       -2.126118   -0.045631   -0.008264
      6          6           0       -1.281385   -1.145950    0.151032
      7          6           0        0.103540   -0.970540    0.136094
      8          8           0        0.975863   -2.019220    0.288377
      9          1           0        2.619354    0.116463    0.888730
     10          1           0        2.631327   -0.126249   -0.851234
     11          1           0        2.450838    1.513713   -0.194287
     12          1           0        0.229946    2.377615   -0.330073
     13          1           0       -2.233151    2.088395   -0.306678
     14          1           0       -3.202984   -0.190562    0.004543
     15          1           0       -1.697561   -2.143312    0.287292
     16          1           0        0.465116   -2.835950    0.398789
 ---------------------------------------------------------------------
                    Distance matrix (angstroms):
                    1          2          3          4          5
     1  C    0.000000
     2  C    1.507505   0.000000
     3  C    2.544677   1.396323   0.000000
     4  C    3.835455   2.443307   1.398145   0.000000
     5  C    4.328810   2.821453   2.410345   1.393050   0.000000
     6  C    3.816274   2.441255   2.776203   2.414424   1.396299
     7  C    2.525014   1.407078   2.398075   2.788630   2.418195
     8  O    2.778224   2.365584   3.633092   4.160490   3.688540
     9  H    1.096688   2.163416   3.272519   4.477899   4.832223
    10  H    1.096688   2.163416   3.272520   4.477900   4.832223
    11  H    1.094375   2.155629   2.649674   4.045783   4.838872
    12  H    2.740065   2.140392   1.087875   2.154264   3.395103
    13  H    4.701894   3.421093   2.158098   1.086107   2.157446
    14  H    5.415355   3.908068   3.401139   2.158833   1.086651
    15  H    4.679082   3.423060   3.865431   3.403792   2.161314
    16  H    3.743496   3.177156   4.314060   4.586843   3.829630
                    6          7          8          9         10
     6  C    0.000000
     7  C    1.396069   0.000000
     8  O    2.424176   1.372540   0.000000
     9  H    4.165771   2.842069   2.760910   0.000000
    10  H    4.165770   2.842068   2.760908   1.756852   0.000000
    11  H    4.595927   3.433726   3.858773   1.775847   1.775847
    12  H    3.864078   3.382814   4.502336   3.508213   3.508215
    13  H    3.402402   3.874694   5.246366   5.372553   5.372554
    14  H    2.150992   3.399819   4.570264   5.897090   5.897090
    15  H    1.089266   2.154581   2.676302   4.909589   4.909587
    16  H    2.442898   1.918202   0.969588   3.687482   3.687480
                   11         12         13         14         15
    11  H    0.000000
    12  H    2.386865   0.000000
    13  H    4.720450   2.480130   0.000000
    14  H    5.908451   4.300293   2.496213   0.000000
    15  H    5.551122   4.953302   4.306622   2.481829   0.000000
    16  H    4.818133   5.269517   5.659284   4.539655   2.273620
                   16
    16  H    0.000000
 Stoichiometry    C7H8O
 Framework group  C1[X(C7H8O)]
 Deg. of freedom    42
 Full point group                 C1      NOp   1
 Largest Abelian subgroup         C1      NOp   1
 Largest concise Abelian subgroup C1      NOp   1
                         Standard orientation:                         
 ---------------------------------------------------------------------
 Center     Atomic      Atomic             Coordinates (Angstroms)
 Number     Number       Type             X           Y           Z
 ---------------------------------------------------------------------
      1          6           0       -1.980769   -1.223521    0.000000
      2          6           0       -0.590203   -0.641372   -0.000000
      3          6           0        0.554613   -1.440818   -0.000000
      4          6           0        1.840278   -0.891388    0.000000
      5          6           0        1.993053    0.493259    0.000000
      6          6           0        0.866235    1.317840    0.000000
      7          6           0       -0.411018    0.754249   -0.000000
      8          8           0       -1.549412    1.521012    0.000000
      9          1           0       -2.550611   -0.897375    0.878427
     10          1           0       -2.550612   -0.897372   -0.878425
     11          1           0       -1.945884   -2.317340   -0.000002
     12          1           0        0.432209   -2.521785   -0.000000
     13          1           0        2.710364   -1.541449    0.000000
     14          1           0        2.983737    0.939749    0.000000
     15          1           0        0.977954    2.401361    0.000000
     16          1           0       -1.294995    2.456626   -0.000000
 ---------------------------------------------------------------------
 Rotational constants (GHZ):           3.2683844           2.1895329           1.3218337
 Standard basis: 6-31G(d) (6D, 7F)
 There are   136 symmetry adapted cartesian basis functions of A   symmetry.
 There are   136 symmetry adapted basis functions of A   symmetry.
   136 basis functions,   256 primitive gaussians,   136 cartesian basis functions
    29 alpha electrons       29 beta electrons
       nuclear repulsion energy       347.4857733138 Hartrees.
 NAtoms=   16 NActive=   16 NUniq=   16 SFac= 1.00D+00 NAtFMM=   60 NAOKFM=F Big=F
 Integral buffers will be    131072 words long.
 Raffenetti 1 integral format.
 Two-electron integral symmetry is turned on.
 One-electron integrals computed using PRISM.
 NBasis=   136 RedAO= T EigKep=  4.28D-04  NBF=   136
 NBsUse=   136 1.00D-06 EigRej= -1.00D+00 NBFU=   136
 Initial guess from the checkpoint file:  "3_#_mp2_6-31G_d_geom_allcheck_guess_read.chk"
 B after Tr=    -0.000000   -0.000000    0.000000
         Rot=    1.000000    0.000000   -0.000000    0.000000 Ang=   0.00 deg.
 Requested convergence on RMS density matrix=1.00D-08 within 128 cycles.
 Requested convergence on MAX density matrix=1.00D-06.
 Requested convergence on             energy=1.00D-06.
 No special actions if energy rises.
 SCF Done:  E(RHF) =  -344.593263845     A.U. after   13 cycles
            NFock= 13  Conv=0.54D-08     -V/T= 2.0022
 ExpMin= 1.61D-01 ExpMax= 5.48D+03 ExpMxC= 8.25D+02 IAcc=3 IRadAn=         5 AccDes= 0.00D+00
 HarFok:  IExCor=  205 AccDes= 0.00D+00 IRadAn=         5 IDoV=-2 UseB2=F ITyADJ=14
 ICtDFT= 12500011 ScaDFX=  1.000000  1.000000  1.000000  1.000000
 Range of M.O.s used for correlation:     9   136
 NBasis=   136 NAE=    29 NBE=    29 NFC=     8 NFV=     0
 NROrb=    128 NOA=    21 NOB=    21 NVA=   107 NVB=   107
 Fully in-core method, ICMem=    97622120.
 JobTyp=1 Pass  1 fully in-core, NPsUse= 10.
 Spin components of T(2) and E(2):
     alpha-alpha T2 =       0.5119558748D-01 E2=     -0.1425154000D+00
     alpha-beta  T2 =       0.2692757952D+00 E2=     -0.7848823420D+00
     beta-beta   T2 =       0.5119558748D-01 E2=     -0.1425154000D+00
 ANorm=    0.1171181869D+01
 E2 =    -0.1069913142D+01 EUMP2 =    -0.34566317698722D+03

 **********************************************************************

            Population analysis using the SCF density.

 **********************************************************************

 Orbital symmetries:
       Occupied  (A) (A) (A) (A) (A) (A) (A) (A) (A) (A) (A) (A)
                 (A) (A) (A) (A) (A) (A) (A) (A) (A) (A) (A) (A)
                 (A) (A) (A) (A) (A)
       Virtual   (A) (A) (A) (A) (A) (A) (A) (A) (A) (A) (A) (A)
                 (A) (A) (A) (A) (A) (A) (A) (A) (A) (A) (A) (A)
                 (A) (A) (A) (A) (A) (A) (A) (A) (A) (A) (A) (A)
                 (A) (A) (A) (A) (A) (A) (A) (A) (A) (A) (A) (A)
                 (A) (A) (A) (A) (A) (A) (A) (A) (A) (A) (A) (A)
                 (A) (A) (A) (A) (A) (A) (A) (A) (A) (A) (A) (A)
                 (A) (A) (A) (A) (A) (A) (A) (A) (A) (A) (A) (A)
                 (A) (A) (A) (A) (A) (A) (A) (A) (A) (A) (A) (A)
                 (A) (A) (A) (A) (A) (A) (A) (A) (A) (A) (A)
 The electronic state is 1-A.
 Alpha  occ. eigenvalues --  -20.59295 -11.29752 -11.23738 -11.23477 -11.23344
 Alpha  occ. eigenvalues --  -11.23253 -11.22527 -11.21742  -1.39702  -1.14207
 Alpha  occ. eigenvalues --   -1.04055  -0.99865  -0.92505  -0.83794  -0.79502
 Alpha  occ. eigenvalues --   -0.72181  -0.66798  -0.64607  -0.59842  -0.59277
 Alpha  occ. eigenvalues --   -0.57645  -0.55640  -0.54488  -0.53703  -0.49754
 Alpha  occ. eigenvalues --   -0.48138  -0.47000  -0.32868  -0.30300
 Alpha virt. eigenvalues --    0.14549   0.16027   0.21771   0.24470   0.26661
 Alpha virt. eigenvalues --    0.29422   0.32184   0.32656   0.32713   0.35800
 Alpha virt. eigenvalues --    0.39580   0.41727   0.43974   0.48696   0.51186
 Alpha virt. eigenvalues --    0.54524   0.55252   0.69964   0.71828   0.73165
 Alpha virt. eigenvalues --    0.74465   0.76622   0.77687   0.81377   0.83411
 Alpha virt. eigenvalues --    0.83657   0.84067   0.84615   0.87550   0.88123
 Alpha virt. eigenvalues --    0.92121   0.93653   0.95885   1.01731   1.02843
 Alpha virt. eigenvalues --    1.04203   1.10580   1.11124   1.11847   1.14631
 Alpha virt. eigenvalues --    1.15034   1.17330   1.20814   1.21282   1.22074
 Alpha virt. eigenvalues --    1.24891   1.26651   1.28924   1.31650   1.35165
 Alpha virt. eigenvalues --    1.35669   1.42691   1.47581   1.50561   1.53675
 Alpha virt. eigenvalues --    1.61589   1.62942   1.68651   1.70027   1.72903
 Alpha virt. eigenvalues --    1.76092   1.76259   1.78404   2.01149   2.02996
 Alpha virt. eigenvalues --    2.05914   2.07802   2.14183   2.16707   2.17609
 Alpha virt. eigenvalues --    2.20882   2.23585   2.28683   2.30459   2.30487
 Alpha virt. eigenvalues --    2.39895   2.42638   2.47929   2.49936   2.56423
 Alpha virt. eigenvalues --    2.60377   2.61820   2.65197   2.65290   2.67007
 Alpha virt. eigenvalues --    2.68904   2.79537   2.87009   2.89867   2.93393
 Alpha virt. eigenvalues --    3.00552   3.05528   3.07904   3.12868   3.15322
 Alpha virt. eigenvalues --    3.22184   3.33982   3.50873   3.79778   4.38603
 Alpha virt. eigenvalues --    4.51899   4.54487   4.60226   4.70790   4.82942
 Alpha virt. eigenvalues --    4.85391   5.17633
          Condensed to atoms (all electrons):
               1          2          3          4          5          6
     1  C    5.085632   0.319988  -0.042303   0.003472  -0.000110   0.004029
     2  C    0.319988   4.874490   0.582204  -0.050061  -0.025643  -0.061353
     3  C   -0.042303   0.582204   4.898824   0.537634  -0.044022  -0.037503
     4  C    0.003472  -0.050061   0.537634   4.918191   0.561657  -0.050798
     5  C   -0.000110  -0.025643  -0.044022   0.561657   4.884030   0.514837
     6  C    0.004029  -0.061353  -0.037503  -0.050798   0.514837   5.066106
     7  C   -0.051316   0.570384  -0.036117  -0.030010  -0.034121   0.553051
     8  O   -0.003497  -0.057447   0.002322   0.000031   0.003385  -0.059052
     9  H    0.390591  -0.036649   0.000743  -0.000071   0.000019  -0.000056
    10  H    0.390591  -0.036649   0.000743  -0.000071   0.000019  -0.000056
    11  H    0.394454  -0.043724  -0.003601   0.000276  -0.000024  -0.000004
    12  H   -0.003143  -0.032021   0.380245  -0.029897   0.002609   0.000186
    13  H   -0.000096   0.001786  -0.028799   0.381567  -0.029298   0.002532
    14  H    0.000006   0.000393   0.002298  -0.026870   0.379456  -0.027915
    15  H   -0.000105   0.002076   0.000286   0.002258  -0.021667   0.374964
    16  H   -0.000115   0.005755  -0.000113  -0.000007   0.000416  -0.000937
               7          8          9         10         11         12
     1  C   -0.051316  -0.003497   0.390591   0.390591   0.394454  -0.003143
     2  C    0.570384  -0.057447  -0.036649  -0.036649  -0.043724  -0.032021
     3  C   -0.036117   0.002322   0.000743   0.000743  -0.003601   0.380245
     4  C   -0.030010   0.000031  -0.000071  -0.000071   0.000276  -0.029897
     5  C   -0.034121   0.003385   0.000019   0.000019  -0.000024   0.002609
     6  C    0.553051  -0.059052  -0.000056  -0.000056  -0.000004   0.000186
     7  C    4.436568   0.271010  -0.004958  -0.004958   0.003840   0.002541
     8  O    0.271010   8.344483   0.001914   0.001914   0.000159  -0.000043
     9  H   -0.004958   0.001914   0.521585  -0.030715  -0.025870   0.000053
    10  H   -0.004958   0.001914  -0.030715   0.521585  -0.025870   0.000053
    11  H    0.003840   0.000159  -0.025870  -0.025870   0.533884   0.002496
    12  H    0.002541  -0.000043   0.000053   0.000053   0.002496   0.479045
    13  H    0.000431   0.000001   0.000002   0.000002  -0.000006  -0.001418
    14  H    0.001011  -0.000037  -0.000000  -0.000000  -0.000000  -0.000113
    15  H   -0.036782  -0.002224   0.000001   0.000001   0.000002   0.000010
    16  H   -0.030215   0.263260  -0.000040  -0.000040  -0.000000   0.000004
              13         14         15         16
     1  C   -0.000096   0.000006  -0.000105  -0.000115
     2  C    0.001786   0.000393   0.002076   0.005755
     3  C   -0.028799   0.002298   0.000286  -0.000113
     4  C    0.381567  -0.026870   0.002258  -0.000007
     5  C   -0.029298   0.379456  -0.021667   0.000416
     6  C    0.002532  -0.027915   0.374964  -0.000937
     7  C    0.000431   0.001011  -0.036782  -0.030215
     8  O    0.000001  -0.000037  -0.002224   0.263260
     9  H    0.000002  -0.000000   0.000001  -0.000040
    10  H    0.000002  -0.000000   0.000001  -0.000040
    11  H   -0.000006  -0.000000   0.000002  -0.000000
    12  H   -0.001418  -0.000113   0.000010   0.000004
    13  H    0.475972  -0.001241  -0.000110  -0.000000
    14  H   -0.001241   0.471628  -0.001566  -0.000009
    15  H   -0.000110  -0.001566   0.488188   0.004682
    16  H   -0.000000  -0.000009   0.004682   0.301407
 Mulliken charges:
               1
     1  C   -0.488077
     2  C   -0.013529
     3  C   -0.212841
     4  C   -0.217300
     5  C   -0.191541
     6  C   -0.278032
     7  C    0.389641
     8  O   -0.766179
     9  H    0.183453
    10  H    0.183453
    11  H    0.163986
    12  H    0.199394
    13  H    0.198675
    14  H    0.202958
    15  H    0.189986
    16  H    0.455953
 Sum of Mulliken charges =  -0.00000
 Mulliken charges with hydrogens summed into heavy atoms:
               1
     1  C    0.042816
     2  C   -0.013529
     3  C   -0.013447
     4  C   -0.018625
     5  C    0.011417
     6  C   -0.088046
     7  C    0.389641
     8  O   -0.310226
 Electronic spatial extent (au):  <R**2>=            903.5619
 Charge=             -0.0000 electrons
 Dipole moment (field-independent basis, Debye):
    X=              0.8056    Y=              0.9532    Z=             -0.0000  Tot=              1.2480
 Quadrupole moment (field-independent basis, Debye-Ang):
   XX=            -46.9628   YY=            -37.9670   ZZ=            -51.4190
   XY=              0.5569   XZ=              0.0000   YZ=             -0.0000
 Traceless Quadrupole moment (field-independent basis, Debye-Ang):
   XX=             -1.5132   YY=              7.4826   ZZ=             -5.9694
   XY=              0.5569   XZ=              0.0000   YZ=             -0.0000
 Octapole moment (field-independent basis, Debye-Ang**2):
  XXX=              8.0308  YYY=             25.5049  ZZZ=              0.0000  XYY=             -4.5825
  XXY=             -0.3768  XXZ=             -0.0000  XZZ=             -7.0633  YZZ=              2.9059
  YYZ=             -0.0000  XYZ=              0.0000
 Hexadecapole moment (field-independent basis, Debye-Ang**3):
 XXXX=           -654.8263 YYYY=           -372.0668 ZZZZ=            -59.4320 XXXY=             -2.9959
 XXXZ=              0.0000 YYYX=            -34.1655 YYYZ=              0.0000 ZZZX=             -0.0000
 ZZZY=             -0.0000 XXYY=           -179.1875 XXZZ=           -129.4889 YYZZ=            -94.2639
 XXYZ=             -0.0000 YYXZ=              0.0000 ZZXY=             -3.2163
 N-N= 3.474857733138D+02 E-N=-1.500123618176D+03  KE= 3.438255250122D+02
 1\1\GINC-MACMINIM12022MAC-MINI-2\SP\RMP2-FC\6-31G(d)\C7H8O1\MACMINI_M1
 _2022\27-May-2024\0\\# mp2/6-31G(d) geom=allcheck guess=read\\Smiles:C
 c1ccccc1O\\0,1\C,0,2.172233174,0.4652835885,-0.0499561411\C,0,0.673412
 2476,0.3041662556,-0.0377948519\C,0,-0.1957411898,1.3856883085,-0.1946
 375863\C,0,-1.5846897572,1.2260928425,-0.1819325044\C,0,-2.1261178675,
 -0.0456312418,-0.0082642165\C,0,-1.2813850749,-1.1459497086,0.15103241
 96\C,0,0.1035397957,-0.970540012,0.1360937298\O,0,0.9758627483,-2.0192
 196369,0.2883771365\H,0,2.619354041,0.1164626573,0.8887300151\H,0,2.63
 1326703,-0.1262492731,-0.8512343318\H,0,2.4508379471,1.5137131602,-0.1
 942870271\H,0,0.2299464428,2.3776152216,-0.3300731928\H,0,-2.233151042
 8,2.0883948647,-0.3066775671\H,0,-3.2029841819,-0.1905622704,0.0045426
 534\H,0,-1.6975606782,-2.143311754,0.2872915792\H,0,0.465115693,-2.835
 9500065,0.3987888546\\Version=EM64M-G16RevA.03\State=1-A\HF=-344.59326
 38\MP2=-345.663177\RMSD=5.378e-09\PG=C01 [X(C7H8O1)]\\@


 TWO ROADS DIVERGED IN A WOOD, AND I--
 I TOOK THE ONE LESS TRAVELED BY,
 AND THAT HAS MADE ALL THE DIFFERENCE.

                       -- ROBERT FROST
 Job cpu time:       0 days  0 hours  0 minutes  3.3 seconds.
 Elapsed time:       0 days  0 hours  0 minutes  3.3 seconds.
 File lengths (MBytes):  RWF=     14 Int=      0 D2E=      0 Chk=      4 Scr=      1
 Normal termination of Gaussian 16 at Mon May 27 12:03:02 2024.
