 Entering Gaussian System, Link 0=g16
 Input=/Users/macmini_m1_2022/Poclab/ichizawa/Gaussian/20240719_substituents_1_1000/1_#_opt_pm6_MMFF.gjf
 Output=/Users/macmini_m1_2022/Poclab/ichizawa/Gaussian/20240719_substituents_1_1000/1_#_opt_pm6_MMFF.log
 Initial command:
 /Applications/g16/l1.exe "/Users/macmini_m1_2022/Poclab/ichizawa/Gaussian/20240719_substituents_1_1000/Gau-98599.inp" -scrdir="/Users/macmini_m1_2022/Poclab/ichizawa/Gaussian/20240719_substituents_1_1000/"
 Entering Link 1 = /Applications/g16/l1.exe PID=     98600.
  
 Copyright (c) 1988,1990,1992,1993,1995,1998,2003,2009,2016,
            Gaussian, Inc.  All Rights Reserved.
  
 This is part of the Gaussian(R) 16 program.  It is based on
 the Gaussian(R) 09 system (copyright 2009, Gaussian, Inc.),
 the Gaussian(R) 03 system (copyright 2003, Gaussian, Inc.),
 the Gaussian(R) 98 system (copyright 1998, Gaussian, Inc.),
 the Gaussian(R) 94 system (copyright 1995, Gaussian, Inc.),
 the Gaussian 92(TM) system (copyright 1992, Gaussian, Inc.),
 the Gaussian 90(TM) system (copyright 1990, Gaussian, Inc.),
 the Gaussian 88(TM) system (copyright 1988, Gaussian, Inc.),
 the Gaussian 86(TM) system (copyright 1986, Carnegie Mellon
 University), and the Gaussian 82(TM) system (copyright 1983,
 Carnegie Mellon University). Gaussian is a federally registered
 trademark of Gaussian, Inc.
  
 This software contains proprietary and confidential information,
 including trade secrets, belonging to Gaussian, Inc.
  
 This software is provided under written license and may be
 used, copied, transmitted, or stored only in accord with that
 written license.
  
 The following legend is applicable only to US Government
 contracts under FAR:
  
                    RESTRICTED RIGHTS LEGEND
  
 Use, reproduction and disclosure by the US Government is
 subject to restrictions as set forth in subparagraphs (a)
 and (c) of the Commercial Computer Software - Restricted
 Rights clause in FAR 52.227-19.
  
 Gaussian, Inc.
 340 Quinnipiac St., Bldg. 40, Wallingford CT 06492
  
  
 ---------------------------------------------------------------
 Warning -- This program may not be used in any manner that
 competes with the business of Gaussian, Inc. or will provide
 assistance to any competitor of Gaussian, Inc.  The licensee
 of this program is prohibited from giving any competitor of
 Gaussian, Inc. access to this program.  By using this program,
 the user acknowledges that Gaussian, Inc. is engaged in the
 business of creating and licensing software in the field of
 computational chemistry and represents and warrants to the
 licensee that it is not a competitor of Gaussian, Inc. and that
 it will not use this program in any manner prohibited above.
 ---------------------------------------------------------------
  

 Cite this work as:
 Gaussian 16, Revision A.03,
 M. J. Frisch, G. W. Trucks, H. B. Schlegel, G. E. Scuseria, 
 M. A. Robb, J. R. Cheeseman, G. Scalmani, V. Barone, 
 G. A. Petersson, H. Nakatsuji, X. Li, M. Caricato, A. V. Marenich, 
 J. Bloino, B. G. Janesko, R. Gomperts, B. Mennucci, H. P. Hratchian, 
 J. V. Ortiz, A. F. Izmaylov, J. L. Sonnenberg, D. Williams-Young, 
 F. Ding, F. Lipparini, F. Egidi, J. Goings, B. Peng, A. Petrone, 
 T. Henderson, D. Ranasinghe, V. G. Zakrzewski, J. Gao, N. Rega, 
 G. Zheng, W. Liang, M. Hada, M. Ehara, K. Toyota, R. Fukuda, 
 J. Hasegawa, M. Ishida, T. Nakajima, Y. Honda, O. Kitao, H. Nakai, 
 T. Vreven, K. Throssell, J. A. Montgomery, Jr., J. E. Peralta, 
 F. Ogliaro, M. J. Bearpark, J. J. Heyd, E. N. Brothers, K. N. Kudin, 
 V. N. Staroverov, T. A. Keith, R. Kobayashi, J. Normand, 
 K. Raghavachari, A. P. Rendell, J. C. Burant, S. S. Iyengar, 
 J. Tomasi, M. Cossi, J. M. Millam, M. Klene, C. Adamo, R. Cammi, 
 J. W. Ochterski, R. L. Martin, K. Morokuma, O. Farkas, 
 J. B. Foresman, and D. J. Fox, Gaussian, Inc., Wallingford CT, 2016.
 
 ******************************************
 Gaussian 16:  EM64M-G16RevA.03 25-Dec-2016
                19-Jul-2024 
 ******************************************
 %Mem=16GB
 %Nprocshared=10
 Will use up to   10 processors via shared memory.
 %chk=1_#_opt_pm6_MMFF.chk
 ---------
 # opt pm6
 ---------
 1/18=20,19=15,26=1,38=1/1,3;
 2/9=110,12=2,17=6,18=5,40=1/2;
 3/5=2,25=1,41=3900000,71=1/1,2,3;
 4/35=1/1;
 5/5=2,35=1,38=5/2;
 6/7=2,8=2,9=2,10=2,28=1/1;
 7//1,2,3,16;
 1/18=20,19=15,26=1/3(2);
 2/9=110/2;
 99//99;
 2/9=110/2;
 3/5=2,25=1,41=3900000,71=1,135=20/1,2,3;
 4/5=5,16=3,35=1/1;
 5/5=2,35=1,38=5/2;
 7//1,2,3,16;
 1/18=20,19=15,26=1/3(-5);
 2/9=110/2;
 6/7=2,8=2,9=2,10=2,19=2,28=1/1;
 99/9=1/99;
 ------------
 Smiles:[2H]C
 ------------
 Symbolic Z-matrix:
 Charge =  0 Multiplicity = 1
 H                    -0.74768  -0.11047  -0.78846 
 C                     0.        0.        0. 
 H                    -0.34736  -0.50433   0.90437 
 H                     0.94204  -0.44592  -0.32652 
 H                     0.153     1.06072   0.21061 
 

 GradGradGradGradGradGradGradGradGradGradGradGradGradGradGradGradGradGrad
 Berny optimization.
 Initialization pass.
                           ----------------------------
                           !    Initial Parameters    !
                           ! (Angstroms and Degrees)  !
 --------------------------                            --------------------------
 ! Name  Definition              Value          Derivative Info.                !
 --------------------------------------------------------------------------------
 ! R1    R(1,2)                  1.0922         estimate D2E/DX2                !
 ! R2    R(2,3)                  1.0922         estimate D2E/DX2                !
 ! R3    R(2,4)                  1.0922         estimate D2E/DX2                !
 ! R4    R(2,5)                  1.0922         estimate D2E/DX2                !
 ! A1    A(1,2,3)              109.4712         estimate D2E/DX2                !
 ! A2    A(1,2,4)              109.4712         estimate D2E/DX2                !
 ! A3    A(1,2,5)              109.4712         estimate D2E/DX2                !
 ! A4    A(3,2,4)              109.4712         estimate D2E/DX2                !
 ! A5    A(3,2,5)              109.4712         estimate D2E/DX2                !
 ! A6    A(4,2,5)              109.4712         estimate D2E/DX2                !
 ! D1    D(3,2,5,4)            120.0            estimate D2E/DX2                !
 --------------------------------------------------------------------------------
 Trust Radius=3.00D-01 FncErr=1.00D-07 GrdErr=1.00D-07 EigMax=2.50D+02 EigMin=1.00D-04
 Number of steps in this run=     21 maximum allowed number of steps=    100.
 GradGradGradGradGradGradGradGradGradGradGradGradGradGradGradGradGradGrad

                          Input orientation:                          
 ---------------------------------------------------------------------
 Center     Atomic      Atomic             Coordinates (Angstroms)
 Number     Number       Type             X           Y           Z
 ---------------------------------------------------------------------
      1          1           0       -0.747683   -0.110470   -0.788459
      2          6           0        0.000000    0.000000    0.000000
      3          1           0       -0.347359   -0.504331    0.904373
      4          1           0        0.942038   -0.445922   -0.326524
      5          1           0        0.153004    1.060723    0.210610
 ---------------------------------------------------------------------
                    Distance matrix (angstroms):
                    1          2          3          4          5
     1  H    0.000000
     2  C    1.092200   0.000000
     3  H    1.783554   1.092199   0.000000
     4  H    1.783555   1.092200   1.783554   0.000000
     5  H    1.783555   1.092200   1.783554   1.783555   0.000000
 This structure is nearly, but not quite of a higher symmetry.
 Consider Symm=Loose if the higher symmetry is desired.
 This structure is nearly, but not quite of a higher symmetry.
 Consider Symm=Loose if the higher symmetry is desired.
 Stoichiometry    CH4
 Framework group  C1[X(CH4)]
 Deg. of freedom     9
 Full point group                 C1      NOp   1
 Largest Abelian subgroup         C1      NOp   1
 Largest concise Abelian subgroup C1      NOp   1
                         Standard orientation:                         
 ---------------------------------------------------------------------
 Center     Atomic      Atomic             Coordinates (Angstroms)
 Number     Number       Type             X           Y           Z
 ---------------------------------------------------------------------
      1          1           0        1.002489   -0.099281    0.421972
      2          6           0        0.000000    0.000000    0.000000
      3          1           0       -0.741621   -0.104568    0.794961
      4          1           0       -0.102841    0.981971   -0.466965
      5          1           0       -0.158027   -0.778122   -0.749969
 ---------------------------------------------------------------------
 Rotational constants (GHZ):         157.6375045         157.6374274         157.6373257
 Standard basis: VSTO-6G (5D, 7F)
 There are     8 symmetry adapted cartesian basis functions of A   symmetry.
 There are     8 symmetry adapted basis functions of A   symmetry.
     8 basis functions,    48 primitive gaussians,     8 cartesian basis functions
     4 alpha electrons        4 beta electrons
       nuclear repulsion energy        14.4212986388 Hartrees.
 Integral buffers will be    131072 words long.
 Regular integral format.
 Two-electron integral symmetry is turned off.
 Do NDO integrals.
 One-electron integrals computed using PRISM.
 NBasis=     8 RedAO= F EigKep=  0.00D+00  NBF=     8
 NBsUse=     8 1.00D-04 EigRej=  0.00D+00 NBFU=     8
 Simple Huckel Guess.
 Keep J ints in memory in canonical form, NReq=859233.
 Overlap will be assumed to be unity.
 Requested convergence on RMS density matrix=1.00D-08 within 128 cycles.
 Requested convergence on MAX density matrix=1.00D-06.
 Requested convergence on             energy=1.00D-06.
 No special actions if energy rises.
 SCF Done:  E(RPM6) = -0.194565184604E-01 A.U. after    7 cycles
            NFock=  7  Conv=0.96D-08     -V/T= 0.9981

 **********************************************************************

            Population analysis using the SCF density.

 **********************************************************************

 Orbital symmetries:
       Occupied  (A) (A) (A) (A)
       Virtual   (A) (A) (A) (A)
 The electronic state is 1-A.
 Alpha  occ. eigenvalues --   -0.91969  -0.50069  -0.50069  -0.50069
 Alpha virt. eigenvalues --    0.21987   0.21987   0.21987   0.26415
          Condensed to atoms (all electrons):
               1          2          3          4          5
     1  H    0.836459   0.000000   0.000000   0.000000   0.000000
     2  C    0.000000   4.654165   0.000000   0.000000   0.000000
     3  H    0.000000   0.000000   0.836459   0.000000   0.000000
     4  H    0.000000   0.000000   0.000000   0.836459   0.000000
     5  H    0.000000   0.000000   0.000000   0.000000   0.836459
 Mulliken charges:
               1
     1  H    0.163541
     2  C   -0.654165
     3  H    0.163541
     4  H    0.163541
     5  H    0.163541
 Sum of Mulliken charges =  -0.00000
 Mulliken charges with hydrogens summed into heavy atoms:
               1
     2  C   -0.000000
 Charge=             -0.0000 electrons
 Dipole moment (field-independent basis, Debye):
    X=              0.0000    Y=             -0.0000    Z=             -0.0000  Tot=              0.0000
 N-N= 1.442129863884D+01 E-N=-1.369698957726D+01  KE=-1.034102027888D+01
 Calling FoFJK, ICntrl=      2127 FMM=F ISym2X=0 I1Cent= 0 IOpClX= 0 NMat=1 NMatS=1 NMatT=0.
 ***** Axes restored to original set *****
 -------------------------------------------------------------------
 Center     Atomic                   Forces (Hartrees/Bohr)
 Number     Number              X              Y              Z
 -------------------------------------------------------------------
      1        1           0.003010665    0.000444838    0.003174810
      2        6          -0.000000053    0.000000109   -0.000000323
      3        1           0.001398479    0.002030486   -0.003641101
      4        1          -0.003793023    0.001795471    0.001314661
      5        1          -0.000616068   -0.004270904   -0.000848047
 -------------------------------------------------------------------
 Cartesian Forces:  Max     0.004270904 RMS     0.002270918

 GradGradGradGradGradGradGradGradGradGradGradGradGradGradGradGradGradGrad
 Berny optimization.
 FormGI is forming the generalized inverse of G from B-inverse, IUseBI=4.
 Internal  Forces:  Max     0.004397886 RMS     0.002651861
 Search for a local minimum.
 Step number   1 out of a maximum of   21
 All quantities printed in internal units (Hartrees-Bohrs-Radians)
 Mixed Optimization -- RFO/linear search
 Second derivative matrix not updated -- first step.
 The second derivative matrix:
                          R1        R2        R3        R4        A1
           R1           0.34560
           R2           0.00000   0.34560
           R3           0.00000   0.00000   0.34560
           R4           0.00000   0.00000   0.00000   0.34560
           A1           0.00000   0.00000   0.00000   0.00000   0.16000
           A2           0.00000   0.00000   0.00000   0.00000   0.00000
           A3           0.00000   0.00000   0.00000   0.00000   0.00000
           A4           0.00000   0.00000   0.00000   0.00000   0.00000
           A5           0.00000   0.00000   0.00000   0.00000   0.00000
           A6           0.00000   0.00000   0.00000   0.00000   0.00000
           D1           0.00000   0.00000   0.00000   0.00000   0.00000
                          A2        A3        A4        A5        A6
           A2           0.16000
           A3           0.00000   0.16000
           A4           0.00000   0.00000   0.16000
           A5           0.00000   0.00000   0.00000   0.16000
           A6           0.00000   0.00000   0.00000   0.00000   0.16000
           D1           0.00000   0.00000   0.00000   0.00000   0.00000
                          D1
           D1           0.00230
 ITU=  0
     Eigenvalues ---    0.07239   0.16000   0.16000   0.16000   0.16000
     Eigenvalues ---    0.34560   0.34560   0.34560   0.34560
 RFO step:  Lambda=-2.23688373D-04 EMin= 7.23889105D-02
 Linear search not attempted -- first point.
 Iteration  1 RMS(Cart)=  0.00766832 RMS(Int)=  0.00000000
 Iteration  2 RMS(Cart)=  0.00000000 RMS(Int)=  0.00000000
 Variable       Old X    -DE/DX   Delta X   Delta X   Delta X     New X
                                 (Linear)    (Quad)   (Total)
    R1        2.06396  -0.00440   0.00000  -0.01272  -0.01272   2.05124
    R2        2.06396  -0.00440   0.00000  -0.01272  -0.01272   2.05124
    R3        2.06396  -0.00440   0.00000  -0.01272  -0.01272   2.05124
    R4        2.06396  -0.00440   0.00000  -0.01272  -0.01272   2.05124
    A1        1.91063   0.00000   0.00000   0.00000   0.00000   1.91063
    A2        1.91063  -0.00000   0.00000  -0.00000  -0.00000   1.91063
    A3        1.91063  -0.00000   0.00000  -0.00000  -0.00000   1.91063
    A4        1.91063   0.00000   0.00000   0.00000   0.00000   1.91063
    A5        1.91063   0.00000   0.00000   0.00000   0.00000   1.91063
    A6        1.91063  -0.00000   0.00000  -0.00000  -0.00000   1.91063
    D1        2.09439   0.00000   0.00000   0.00000   0.00000   2.09440
         Item               Value     Threshold  Converged?
 Maximum Force            0.004398     0.000450     NO 
 RMS     Force            0.002652     0.000300     NO 
 Maximum Displacement     0.012350     0.001800     NO 
 RMS     Displacement     0.007668     0.001200     NO 
 Predicted change in Energy=-1.119166D-04
 GradGradGradGradGradGradGradGradGradGradGradGradGradGradGradGradGradGrad

                          Input orientation:                          
 ---------------------------------------------------------------------
 Center     Atomic      Atomic             Coordinates (Angstroms)
 Number     Number       Type             X           Y           Z
 ---------------------------------------------------------------------
      1          1           0       -0.743076   -0.109789   -0.783601
      2          6           0        0.000000   -0.000000    0.000000
      3          1           0       -0.345219   -0.501224    0.898801
      4          1           0        0.936234   -0.443174   -0.324513
      5          1           0        0.152061    1.054188    0.209312
 ---------------------------------------------------------------------
                    Distance matrix (angstroms):
                    1          2          3          4          5
     1  H    0.000000
     2  C    1.085470   0.000000
     3  H    1.772566   1.085470   0.000000
     4  H    1.772566   1.085470   1.772565   0.000000
     5  H    1.772566   1.085470   1.772566   1.772566   0.000000
 Stoichiometry    CH4
 Framework group  C1[X(CH4)]
 Deg. of freedom     9
 Full point group                 C1      NOp   1
 Largest Abelian subgroup         C1      NOp   1
 Largest concise Abelian subgroup C1      NOp   1
                         Standard orientation:                         
 ---------------------------------------------------------------------
 Center     Atomic      Atomic             Coordinates (Angstroms)
 Number     Number       Type             X           Y           Z
 ---------------------------------------------------------------------
      1          1           0        1.043877    0.106328   -0.277960
      2          6           0        0.000000    0.000000    0.000000
      3          1           0       -0.122948    0.253594    1.048246
      4          1           0       -0.605628    0.665795   -0.606776
      5          1           0       -0.315301   -1.025717   -0.163510
 ---------------------------------------------------------------------
 Rotational constants (GHZ):         159.5980054         159.5979931         159.5979783
 Standard basis: VSTO-6G (5D, 7F)
 There are     8 symmetry adapted cartesian basis functions of A   symmetry.
 There are     8 symmetry adapted basis functions of A   symmetry.
     8 basis functions,    48 primitive gaussians,     8 cartesian basis functions
     4 alpha electrons        4 beta electrons
       nuclear repulsion energy        14.4605463156 Hartrees.
 Integral buffers will be    131072 words long.
 Regular integral format.
 Two-electron integral symmetry is turned off.
 Do NDO integrals.
 One-electron integrals computed using PRISM.
 NBasis=     8 RedAO= F EigKep=  0.00D+00  NBF=     8
 NBsUse=     8 1.00D-04 EigRej=  0.00D+00 NBFU=     8
 Initial guess from the checkpoint file:  "1_#_opt_pm6_MMFF.chk"
 B after Tr=     0.000000   -0.000000   -0.000000
         Rot=    0.921341    0.215505   -0.314103   -0.077639 Ang=  45.75 deg.
 Keep J ints in memory in canonical form, NReq=859233.
 Overlap will be assumed to be unity.
 Requested convergence on RMS density matrix=1.00D-08 within 128 cycles.
 Requested convergence on MAX density matrix=1.00D-06.
 Requested convergence on             energy=1.00D-06.
 No special actions if energy rises.
 SCF Done:  E(RPM6) = -0.195831205694E-01 A.U. after    7 cycles
            NFock=  6  Conv=0.48D-08     -V/T= 0.9981
 Calling FoFJK, ICntrl=      2127 FMM=F ISym2X=0 I1Cent= 0 IOpClX= 0 NMat=1 NMatS=1 NMatT=0.
 ***** Axes restored to original set *****
 -------------------------------------------------------------------
 Center     Atomic                   Forces (Hartrees/Bohr)
 Number     Number              X              Y              Z
 -------------------------------------------------------------------
      1        1           0.000388780    0.000057442    0.000409976
      2        6          -0.000000005    0.000000024   -0.000000073
      3        1           0.000180580    0.000262191   -0.000470161
      4        1          -0.000489800    0.000231851    0.000169764
      5        1          -0.000079555   -0.000551509   -0.000109506
 -------------------------------------------------------------------
 Cartesian Forces:  Max     0.000551509 RMS     0.000293246

 GradGradGradGradGradGradGradGradGradGradGradGradGradGradGradGradGradGrad
 Berny optimization.
 Using GEDIIS/GDIIS optimizer.
 FormGI is forming the generalized inverse of G from B-inverse, IUseBI=4.
 Internal  Forces:  Max     0.000567917 RMS     0.000342437
 Search for a local minimum.
 Step number   2 out of a maximum of   21
 All quantities printed in internal units (Hartrees-Bohrs-Radians)
 Mixed Optimization -- En-DIIS/RFO-DIIS
 Update second derivatives using D2CorX and points    1    2
 DE= -1.27D-04 DEPred=-1.12D-04 R= 1.13D+00
 TightC=F SS=  1.41D+00  RLast= 2.54D-02 DXNew= 5.0454D-01 7.6299D-02
 Trust test= 1.13D+00 RLast= 2.54D-02 DXMaxT set to 3.00D-01
 The second derivative matrix:
                          R1        R2        R3        R4        A1
           R1           0.33449
           R2          -0.01111   0.33449
           R3          -0.01111  -0.01111   0.33449
           R4          -0.01111  -0.01111  -0.01111   0.33449
           A1          -0.00000  -0.00000  -0.00000  -0.00000   0.16000
           A2          -0.00000  -0.00000  -0.00000  -0.00000  -0.00000
           A3          -0.00000  -0.00000  -0.00000  -0.00000  -0.00000
           A4           0.00000   0.00000   0.00000   0.00000  -0.00000
           A5           0.00000   0.00000   0.00000   0.00000   0.00000
           A6           0.00000   0.00000   0.00000   0.00000  -0.00000
           D1          -0.00000  -0.00000  -0.00000  -0.00000   0.00000
                          A2        A3        A4        A5        A6
           A2           0.16000
           A3          -0.00000   0.16000
           A4           0.00000   0.00000   0.16000
           A5           0.00000   0.00000  -0.00000   0.16000
           A6           0.00000   0.00000   0.00000  -0.00000   0.16000
           D1          -0.00000  -0.00000   0.00000   0.00000  -0.00000
                          D1
           D1           0.00230
 ITU=  1  0
 Use linear search instead of GDIIS.
     Eigenvalues ---    0.07239   0.16000   0.16000   0.16000   0.16000
     Eigenvalues ---    0.30116   0.34560   0.34560   0.34560
 RFO step:  Lambda= 0.00000000D+00 EMin= 7.23888896D-02
 Quartic linear search produced a step of  0.14664.
 Iteration  1 RMS(Cart)=  0.00112450 RMS(Int)=  0.00000000
 Iteration  2 RMS(Cart)=  0.00000000 RMS(Int)=  0.00000000
 Variable       Old X    -DE/DX   Delta X   Delta X   Delta X     New X
                                 (Linear)    (Quad)   (Total)
    R1        2.05124  -0.00057  -0.00186  -0.00000  -0.00186   2.04938
    R2        2.05124  -0.00057  -0.00186   0.00000  -0.00186   2.04938
    R3        2.05124  -0.00057  -0.00186  -0.00000  -0.00186   2.04938
    R4        2.05124  -0.00057  -0.00186  -0.00000  -0.00186   2.04938
    A1        1.91063   0.00000   0.00000  -0.00000   0.00000   1.91063
    A2        1.91063  -0.00000  -0.00000  -0.00000  -0.00000   1.91063
    A3        1.91063  -0.00000  -0.00000   0.00000  -0.00000   1.91063
    A4        1.91063   0.00000   0.00000   0.00000   0.00000   1.91063
    A5        1.91063   0.00000   0.00000  -0.00000   0.00000   1.91063
    A6        1.91063   0.00000  -0.00000   0.00000   0.00000   1.91063
    D1        2.09440   0.00000   0.00000  -0.00000   0.00000   2.09440
         Item               Value     Threshold  Converged?
 Maximum Force            0.000568     0.000450     NO 
 RMS     Force            0.000342     0.000300     NO 
 Maximum Displacement     0.001811     0.001800     NO 
 RMS     Displacement     0.001124     0.001200     YES
 Predicted change in Energy=-2.141255D-06
 GradGradGradGradGradGradGradGradGradGradGradGradGradGradGradGradGradGrad

                          Input orientation:                          
 ---------------------------------------------------------------------
 Center     Atomic      Atomic             Coordinates (Angstroms)
 Number     Number       Type             X           Y           Z
 ---------------------------------------------------------------------
      1          1           0       -0.742400   -0.109689   -0.782889
      2          6           0       -0.000000   -0.000000    0.000000
      3          1           0       -0.344905   -0.500768    0.897984
      4          1           0        0.935383   -0.442772   -0.324218
      5          1           0        0.151923    1.053229    0.209122
 ---------------------------------------------------------------------
                    Distance matrix (angstroms):
                    1          2          3          4          5
     1  H    0.000000
     2  C    1.084484   0.000000
     3  H    1.770954   1.084484   0.000000
     4  H    1.770954   1.084484   1.770954   0.000000
     5  H    1.770954   1.084484   1.770954   1.770954   0.000000
 This structure is nearly, but not quite of a higher symmetry.
 Consider Symm=Loose if the higher symmetry is desired.
 This structure is nearly, but not quite of a higher symmetry.
 Consider Symm=Loose if the higher symmetry is desired.
 Stoichiometry    CH4
 Framework group  C1[X(CH4)]
 Deg. of freedom     9
 Full point group                 C1      NOp   1
 Largest Abelian subgroup         C1      NOp   1
 Largest concise Abelian subgroup C1      NOp   1
                         Standard orientation:                         
 ---------------------------------------------------------------------
 Center     Atomic      Atomic             Coordinates (Angstroms)
 Number     Number       Type             X           Y           Z
 ---------------------------------------------------------------------
      1          1           0        0.600982    0.842872   -0.323251
      2          6           0        0.000000    0.000000    0.000000
      3          1           0       -1.051353    0.252995   -0.082187
      4          1           0        0.215197   -0.858769   -0.626347
      5          1           0        0.235173   -0.237099    1.031786
 ---------------------------------------------------------------------
 Rotational constants (GHZ):         159.8885683         159.8885670         159.8885645
 Standard basis: VSTO-6G (5D, 7F)
 There are     8 symmetry adapted cartesian basis functions of A   symmetry.
 There are     8 symmetry adapted basis functions of A   symmetry.
     8 basis functions,    48 primitive gaussians,     8 cartesian basis functions
     4 alpha electrons        4 beta electrons
       nuclear repulsion energy        14.4663282920 Hartrees.
 Integral buffers will be    131072 words long.
 Regular integral format.
 Two-electron integral symmetry is turned off.
 Do NDO integrals.
 One-electron integrals computed using PRISM.
 NBasis=     8 RedAO= F EigKep=  0.00D+00  NBF=     8
 NBsUse=     8 1.00D-04 EigRej=  0.00D+00 NBFU=     8
 Initial guess from the checkpoint file:  "1_#_opt_pm6_MMFF.chk"
 B after Tr=     0.000000   -0.000000   -0.000000
         Rot=    0.586818    0.575788    0.316171   -0.473444 Ang= 108.14 deg.
 Keep J ints in memory in canonical form, NReq=859233.
 Overlap will be assumed to be unity.
 Requested convergence on RMS density matrix=1.00D-08 within 128 cycles.
 Requested convergence on MAX density matrix=1.00D-06.
 Requested convergence on             energy=1.00D-06.
 No special actions if energy rises.
 SCF Done:  E(RPM6) = -0.195852394352E-01 A.U. after    5 cycles
            NFock=  4  Conv=0.16D-08     -V/T= 0.9981
 Calling FoFJK, ICntrl=      2127 FMM=F ISym2X=0 I1Cent= 0 IOpClX= 0 NMat=1 NMatS=1 NMatT=0.
 ***** Axes restored to original set *****
 -------------------------------------------------------------------
 Center     Atomic                   Forces (Hartrees/Bohr)
 Number     Number              X              Y              Z
 -------------------------------------------------------------------
      1        1          -0.000000002   -0.000000001   -0.000000002
      2        6           0.000000000    0.000000002   -0.000000007
      3        1          -0.000000002   -0.000000002    0.000000007
      4        1           0.000000003   -0.000000002   -0.000000001
      5        1           0.000000000    0.000000004    0.000000003
 -------------------------------------------------------------------
 Cartesian Forces:  Max     0.000000007 RMS     0.000000003

 GradGradGradGradGradGradGradGradGradGradGradGradGradGradGradGradGradGrad
 Berny optimization.
 Using GEDIIS/GDIIS optimizer.
 FormGI is forming the generalized inverse of G from B-inverse, IUseBI=4.
 Internal  Forces:  Max     0.000000007 RMS     0.000000003
 Search for a local minimum.
 Step number   3 out of a maximum of   21
 All quantities printed in internal units (Hartrees-Bohrs-Radians)
 Mixed Optimization -- En-DIIS/RFO-DIIS
 Swapping is turned off.
 Update second derivatives using D2CorX and points    1    2    3
 DE= -2.12D-06 DEPred=-2.14D-06 R= 9.90D-01
 TightC=F SS=  1.41D+00  RLast= 3.73D-03 DXNew= 5.0454D-01 1.1189D-02
 Trust test= 9.90D-01 RLast= 3.73D-03 DXMaxT set to 3.00D-01
 The second derivative matrix:
                          R1        R2        R3        R4        A1
           R1           0.33533
           R2          -0.01027   0.33533
           R3          -0.01027  -0.01027   0.33533
           R4          -0.01027  -0.01027  -0.01027   0.33533
           A1          -0.00000  -0.00000  -0.00000  -0.00000   0.16000
           A2          -0.00000  -0.00000  -0.00000  -0.00000  -0.00000
           A3           0.00000   0.00000   0.00000   0.00000  -0.00000
           A4           0.00000   0.00000   0.00000   0.00000   0.00000
           A5          -0.00000  -0.00000  -0.00000  -0.00000   0.00000
           A6           0.00000   0.00000   0.00000   0.00000  -0.00000
           D1          -0.00000  -0.00000  -0.00000  -0.00000   0.00000
                          A2        A3        A4        A5        A6
           A2           0.16000
           A3          -0.00000   0.16000
           A4           0.00000   0.00000   0.16000
           A5          -0.00000  -0.00000  -0.00000   0.16000
           A6           0.00000   0.00000  -0.00000  -0.00000   0.16000
           D1          -0.00000  -0.00000   0.00000   0.00000  -0.00000
                          D1
           D1           0.00230
 ITU=  1  1  0
     Eigenvalues ---    0.07239   0.16000   0.16000   0.16000   0.16000
     Eigenvalues ---    0.30453   0.34560   0.34560   0.34560
 En-DIIS/RFO-DIIS/Sim-DIIS IScMMF=       -3 using points:     3    2
 RFO step:  Lambda= 0.00000000D+00.
 DidBck=F Rises=F RFO-DIIS coefs:    0.99999    0.00001
 Iteration  1 RMS(Cart)=  0.00000001 RMS(Int)=  0.00000000
 Variable       Old X    -DE/DX   Delta X   Delta X   Delta X     New X
                                 (Linear)    (Quad)   (Total)
    R1        2.04938   0.00000   0.00000  -0.00000   0.00000   2.04938
    R2        2.04938   0.00000   0.00000   0.00000   0.00000   2.04938
    R3        2.04938   0.00000   0.00000  -0.00000   0.00000   2.04938
    R4        2.04938   0.00000   0.00000  -0.00000   0.00000   2.04938
    A1        1.91063  -0.00000  -0.00000  -0.00000  -0.00000   1.91063
    A2        1.91063  -0.00000   0.00000   0.00000   0.00000   1.91063
    A3        1.91063   0.00000   0.00000   0.00000   0.00000   1.91063
    A4        1.91063   0.00000  -0.00000  -0.00000  -0.00000   1.91063
    A5        1.91063  -0.00000   0.00000  -0.00000  -0.00000   1.91063
    A6        1.91063   0.00000  -0.00000   0.00000   0.00000   1.91063
    D1        2.09440  -0.00000  -0.00000  -0.00000  -0.00000   2.09440
         Item               Value     Threshold  Converged?
 Maximum Force            0.000000     0.000450     YES
 RMS     Force            0.000000     0.000300     YES
 Maximum Displacement     0.000000     0.001800     YES
 RMS     Displacement     0.000000     0.001200     YES
 Predicted change in Energy=-2.128166D-16
 Optimization completed.
    -- Stationary point found.
                           ----------------------------
                           !   Optimized Parameters   !
                           ! (Angstroms and Degrees)  !
 --------------------------                            --------------------------
 ! Name  Definition              Value          Derivative Info.                !
 --------------------------------------------------------------------------------
 ! R1    R(1,2)                  1.0845         -DE/DX =    0.0                 !
 ! R2    R(2,3)                  1.0845         -DE/DX =    0.0                 !
 ! R3    R(2,4)                  1.0845         -DE/DX =    0.0                 !
 ! R4    R(2,5)                  1.0845         -DE/DX =    0.0                 !
 ! A1    A(1,2,3)              109.4712         -DE/DX =    0.0                 !
 ! A2    A(1,2,4)              109.4712         -DE/DX =    0.0                 !
 ! A3    A(1,2,5)              109.4712         -DE/DX =    0.0                 !
 ! A4    A(3,2,4)              109.4712         -DE/DX =    0.0                 !
 ! A5    A(3,2,5)              109.4712         -DE/DX =    0.0                 !
 ! A6    A(4,2,5)              109.4712         -DE/DX =    0.0                 !
 ! D1    D(3,2,5,4)            120.0            -DE/DX =    0.0                 !
 --------------------------------------------------------------------------------
 GradGradGradGradGradGradGradGradGradGradGradGradGradGradGradGradGradGrad

                          Input orientation:                          
 ---------------------------------------------------------------------
 Center     Atomic      Atomic             Coordinates (Angstroms)
 Number     Number       Type             X           Y           Z
 ---------------------------------------------------------------------
      1          1           0       -0.742400   -0.109689   -0.782889
      2          6           0       -0.000000   -0.000000    0.000000
      3          1           0       -0.344905   -0.500768    0.897984
      4          1           0        0.935383   -0.442772   -0.324218
      5          1           0        0.151923    1.053229    0.209122
 ---------------------------------------------------------------------
                    Distance matrix (angstroms):
                    1          2          3          4          5
     1  H    0.000000
     2  C    1.084484   0.000000
     3  H    1.770954   1.084484   0.000000
     4  H    1.770954   1.084484   1.770954   0.000000
     5  H    1.770954   1.084484   1.770954   1.770954   0.000000
 This structure is nearly, but not quite of a higher symmetry.
 Consider Symm=Loose if the higher symmetry is desired.
 This structure is nearly, but not quite of a higher symmetry.
 Consider Symm=Loose if the higher symmetry is desired.
 Stoichiometry    CH4
 Framework group  C1[X(CH4)]
 Deg. of freedom     9
 Full point group                 C1      NOp   1
 Largest Abelian subgroup         C1      NOp   1
 Largest concise Abelian subgroup C1      NOp   1
                         Standard orientation:                         
 ---------------------------------------------------------------------
 Center     Atomic      Atomic             Coordinates (Angstroms)
 Number     Number       Type             X           Y           Z
 ---------------------------------------------------------------------
      1          1           0        0.600982    0.842872   -0.323251
      2          6           0        0.000000    0.000000    0.000000
      3          1           0       -1.051353    0.252995   -0.082187
      4          1           0        0.215197   -0.858769   -0.626347
      5          1           0        0.235174   -0.237099    1.031786
 ---------------------------------------------------------------------
 Rotational constants (GHZ):         159.8885683         159.8885670         159.8885645

 **********************************************************************

            Population analysis using the SCF density.

 **********************************************************************

 Orbital symmetries:
       Occupied  (A) (A) (A) (A)
       Virtual   (A) (A) (A) (A)
 The electronic state is 1-A.
 Alpha  occ. eigenvalues --   -0.92646  -0.50259  -0.50259  -0.50259
 Alpha virt. eigenvalues --    0.22111   0.22111   0.22111   0.26662
          Condensed to atoms (all electrons):
               1          2          3          4          5
     1  H    0.836221   0.000000   0.000000   0.000000   0.000000
     2  C    0.000000   4.655114   0.000000   0.000000   0.000000
     3  H    0.000000   0.000000   0.836221   0.000000   0.000000
     4  H    0.000000   0.000000   0.000000   0.836221   0.000000
     5  H    0.000000   0.000000   0.000000   0.000000   0.836221
 Mulliken charges:
               1
     1  H    0.163779
     2  C   -0.655114
     3  H    0.163779
     4  H    0.163779
     5  H    0.163779
 Sum of Mulliken charges =  -0.00000
 Mulliken charges with hydrogens summed into heavy atoms:
               1
     2  C   -0.000000
 Charge=             -0.0000 electrons
 Dipole moment (field-independent basis, Debye):
    X=              0.0000    Y=              0.0000    Z=             -0.0000  Tot=              0.0000
 N-N= 1.446632829196D+01 E-N=-1.374860434414D+01  KE=-1.035476168956D+01
 1\1\GINC-MACMINIM12022MAC-MINI-2\FOpt\RPM6\ZDO\C1H4\MACMINI_M1_2022\19
 -Jul-2024\0\\# opt pm6\\Smiles:[2H]C\\0,1\H,-0.7424003294,-0.109689389
 7,-0.7828885622\C,-0.000000002,-0.0000000007,0.0000000026\H,-0.3449053
 698,-0.5007683384,0.8979843365\H,0.9353826992,-0.4427715808,-0.3242175
 774\H,0.1519229946,1.0532293161,0.2091217824\\Version=EM64M-G16RevA.03
 \State=1-A\HF=-0.0195852\RMSD=1.561e-09\RMSF=3.290e-09\Dipole=0.,0.,0.
 \PG=C01 [X(C1H4)]\\@


 IF YOU WANT TO LEARN FROM THE THEORETICAL PHYSICISTS ABOUT THE
 METHODS WHICH THEY USE, I ADVISE YOU TO FOLLOW THIS PRINCIPLE VERY STRICTLY:
 DON'T LISTEN TO THEIR WORDS; PAY ATTENTION, INSTEAD, TO THEIR ACTIONS.
 -- A.EINSTEIN, 1934
 Job cpu time:       0 days  0 hours  0 minutes  1.7 seconds.
 Elapsed time:       0 days  0 hours  0 minutes  1.5 seconds.
 File lengths (MBytes):  RWF=      6 Int=      0 D2E=      0 Chk=      2 Scr=      1
 Normal termination of Gaussian 16 at Fri Jul 19 15:54:16 2024.
