 Entering Gaussian System, Link 0=g16
 Input=/Users/macmini_m1_2022/Poclab/ichizawa/Gaussian/20240719_substituents_1_1000/1_#_opt_freq_b3lyp_6-31G_d_geom_allcheck_guess_read.gjf
 Output=/Users/macmini_m1_2022/Poclab/ichizawa/Gaussian/20240719_substituents_1_1000/1_#_opt_freq_b3lyp_6-31G_d_geom_allcheck_guess_read.log
 Initial command:
 /Applications/g16/l1.exe "/Users/macmini_m1_2022/Poclab/ichizawa/Gaussian/20240719_substituents_1_1000/Gau-98604.inp" -scrdir="/Users/macmini_m1_2022/Poclab/ichizawa/Gaussian/20240719_substituents_1_1000/"
 Entering Link 1 = /Applications/g16/l1.exe PID=     98605.
  
 Copyright (c) 1988,1990,1992,1993,1995,1998,2003,2009,2016,
            Gaussian, Inc.  All Rights Reserved.
  
 This is part of the Gaussian(R) 16 program.  It is based on
 the Gaussian(R) 09 system (copyright 2009, Gaussian, Inc.),
 the Gaussian(R) 03 system (copyright 2003, Gaussian, Inc.),
 the Gaussian(R) 98 system (copyright 1998, Gaussian, Inc.),
 the Gaussian(R) 94 system (copyright 1995, Gaussian, Inc.),
 the Gaussian 92(TM) system (copyright 1992, Gaussian, Inc.),
 the Gaussian 90(TM) system (copyright 1990, Gaussian, Inc.),
 the Gaussian 88(TM) system (copyright 1988, Gaussian, Inc.),
 the Gaussian 86(TM) system (copyright 1986, Carnegie Mellon
 University), and the Gaussian 82(TM) system (copyright 1983,
 Carnegie Mellon University). Gaussian is a federally registered
 trademark of Gaussian, Inc.
  
 This software contains proprietary and confidential information,
 including trade secrets, belonging to Gaussian, Inc.
  
 This software is provided under written license and may be
 used, copied, transmitted, or stored only in accord with that
 written license.
  
 The following legend is applicable only to US Government
 contracts under FAR:
  
                    RESTRICTED RIGHTS LEGEND
  
 Use, reproduction and disclosure by the US Government is
 subject to restrictions as set forth in subparagraphs (a)
 and (c) of the Commercial Computer Software - Restricted
 Rights clause in FAR 52.227-19.
  
 Gaussian, Inc.
 340 Quinnipiac St., Bldg. 40, Wallingford CT 06492
  
  
 ---------------------------------------------------------------
 Warning -- This program may not be used in any manner that
 competes with the business of Gaussian, Inc. or will provide
 assistance to any competitor of Gaussian, Inc.  The licensee
 of this program is prohibited from giving any competitor of
 Gaussian, Inc. access to this program.  By using this program,
 the user acknowledges that Gaussian, Inc. is engaged in the
 business of creating and licensing software in the field of
 computational chemistry and represents and warrants to the
 licensee that it is not a competitor of Gaussian, Inc. and that
 it will not use this program in any manner prohibited above.
 ---------------------------------------------------------------
  

 Cite this work as:
 Gaussian 16, Revision A.03,
 M. J. Frisch, G. W. Trucks, H. B. Schlegel, G. E. Scuseria, 
 M. A. Robb, J. R. Cheeseman, G. Scalmani, V. Barone, 
 G. A. Petersson, H. Nakatsuji, X. Li, M. Caricato, A. V. Marenich, 
 J. Bloino, B. G. Janesko, R. Gomperts, B. Mennucci, H. P. Hratchian, 
 J. V. Ortiz, A. F. Izmaylov, J. L. Sonnenberg, D. Williams-Young, 
 F. Ding, F. Lipparini, F. Egidi, J. Goings, B. Peng, A. Petrone, 
 T. Henderson, D. Ranasinghe, V. G. Zakrzewski, J. Gao, N. Rega, 
 G. Zheng, W. Liang, M. Hada, M. Ehara, K. Toyota, R. Fukuda, 
 J. Hasegawa, M. Ishida, T. Nakajima, Y. Honda, O. Kitao, H. Nakai, 
 T. Vreven, K. Throssell, J. A. Montgomery, Jr., J. E. Peralta, 
 F. Ogliaro, M. J. Bearpark, J. J. Heyd, E. N. Brothers, K. N. Kudin, 
 V. N. Staroverov, T. A. Keith, R. Kobayashi, J. Normand, 
 K. Raghavachari, A. P. Rendell, J. C. Burant, S. S. Iyengar, 
 J. Tomasi, M. Cossi, J. M. Millam, M. Klene, C. Adamo, R. Cammi, 
 J. W. Ochterski, R. L. Martin, K. Morokuma, O. Farkas, 
 J. B. Foresman, and D. J. Fox, Gaussian, Inc., Wallingford CT, 2016.
 
 ******************************************
 Gaussian 16:  EM64M-G16RevA.03 25-Dec-2016
                19-Jul-2024 
 ******************************************
 %Mem=16GB
 %Nprocshared=10
 Will use up to   10 processors via shared memory.
 %oldchk=1_#_opt_pm6_MMFF.chk
 %chk=1_#_opt_freq_b3lyp_6-31G_d_geom_allcheck_guess_read.chk
 Copying data from "1_#_opt_pm6_MMFF.chk" to current chk file "1_#_opt_freq_b3lyp_6-31G_d_geom_allcheck_guess_read.chk"
 IOpt=  2 FromEx=T IUOpen= 4 IOptOp= 5 NList=   0 IFRang= 0 IUIn= 4 IUOut= 2.
 --------------------------------------------------
 # opt freq b3lyp/6-31G(d) geom=allcheck guess=read
 --------------------------------------------------
 1/18=20,19=15,26=3,29=7,38=1/1,3;
 2/9=110,12=2,40=1/2;
 3/5=1,6=6,7=1,11=2,14=-4,25=1,30=1,71=1,74=-5,116=-2/1,2,3;
 4/5=1/1;
 5/5=2,38=6/2;
 6/7=2,8=2,9=2,10=2,28=1/1;
 7//1,2,3,16;
 1/18=20,19=15,26=3/3(2);
 2/9=110/2;
 99//99;
 2/9=110/2;
 3/5=1,6=6,7=1,11=2,14=-2,25=1,30=1,71=1,74=-5/1,2,3;
 4/5=5,16=3,69=1/1;
 5/5=2,38=5/2;
 7//1,2,3,16;
 1/18=20,19=15,26=3/3(-5);
 2/9=110/2;
 6/7=2,8=2,9=2,10=2,19=2,28=1/1;
 99/9=1/99;
 Structure from the checkpoint file:  "1_#_opt_freq_b3lyp_6-31G_d_geom_allcheck_guess_read.chk"
 ------------
 Smiles:[2H]C
 ------------
 Charge =  0 Multiplicity = 1
 Redundant internal coordinates found in file.  (old form).
 H,0,-0.7424003294,-0.1096893897,-0.7828885622
 C,0,-0.000000002,-0.0000000007,0.0000000026
 H,0,-0.3449053698,-0.5007683384,0.8979843365
 H,0,0.9353826992,-0.4427715808,-0.3242175774
 H,0,0.1519229946,1.0532293161,0.2091217824
 Recover connectivity data from disk.

 GradGradGradGradGradGradGradGradGradGradGradGradGradGradGradGradGradGrad
 Berny optimization.
 Initialization pass.
                           ----------------------------
                           !    Initial Parameters    !
                           ! (Angstroms and Degrees)  !
 --------------------------                            --------------------------
 ! Name  Definition              Value          Derivative Info.                !
 --------------------------------------------------------------------------------
 ! R1    R(1,2)                  1.0845         estimate D2E/DX2                !
 ! R2    R(2,3)                  1.0845         estimate D2E/DX2                !
 ! R3    R(2,4)                  1.0845         estimate D2E/DX2                !
 ! R4    R(2,5)                  1.0845         estimate D2E/DX2                !
 ! A1    A(1,2,3)              109.4712         estimate D2E/DX2                !
 ! A2    A(1,2,4)              109.4712         estimate D2E/DX2                !
 ! A3    A(1,2,5)              109.4712         estimate D2E/DX2                !
 ! A4    A(3,2,4)              109.4712         estimate D2E/DX2                !
 ! A5    A(3,2,5)              109.4712         estimate D2E/DX2                !
 ! A6    A(4,2,5)              109.4712         estimate D2E/DX2                !
 ! D1    D(3,2,5,4)            120.0            estimate D2E/DX2                !
 --------------------------------------------------------------------------------
 Trust Radius=3.00D-01 FncErr=1.00D-07 GrdErr=1.00D-06 EigMax=2.50D+02 EigMin=1.00D-04
 Number of steps in this run=     21 maximum allowed number of steps=    100.
 GradGradGradGradGradGradGradGradGradGradGradGradGradGradGradGradGradGrad

                          Input orientation:                          
 ---------------------------------------------------------------------
 Center     Atomic      Atomic             Coordinates (Angstroms)
 Number     Number       Type             X           Y           Z
 ---------------------------------------------------------------------
      1          1           0       -0.742400   -0.109689   -0.782889
      2          6           0       -0.000000   -0.000000    0.000000
      3          1           0       -0.344905   -0.500768    0.897984
      4          1           0        0.935383   -0.442772   -0.324218
      5          1           0        0.151923    1.053229    0.209122
 ---------------------------------------------------------------------
                    Distance matrix (angstroms):
                    1          2          3          4          5
     1  H    0.000000
     2  C    1.084484   0.000000
     3  H    1.770954   1.084484   0.000000
     4  H    1.770954   1.084484   1.770954   0.000000
     5  H    1.770954   1.084484   1.770954   1.770954   0.000000
 This structure is nearly, but not quite of a higher symmetry.
 Consider Symm=Loose if the higher symmetry is desired.
 This structure is nearly, but not quite of a higher symmetry.
 Consider Symm=Loose if the higher symmetry is desired.
 Stoichiometry    CH4
 Framework group  C1[X(CH4)]
 Deg. of freedom     9
 Full point group                 C1      NOp   1
 Largest Abelian subgroup         C1      NOp   1
 Largest concise Abelian subgroup C1      NOp   1
                         Standard orientation:                         
 ---------------------------------------------------------------------
 Center     Atomic      Atomic             Coordinates (Angstroms)
 Number     Number       Type             X           Y           Z
 ---------------------------------------------------------------------
      1          1           0        0.600982    0.842872   -0.323251
      2          6           0        0.000000    0.000000    0.000000
      3          1           0       -1.051353    0.252995   -0.082187
      4          1           0        0.215197   -0.858769   -0.626347
      5          1           0        0.235174   -0.237099    1.031786
 ---------------------------------------------------------------------
 Rotational constants (GHZ):         159.8885683         159.8885670         159.8885645
 Standard basis: 6-31G(d) (6D, 7F)
 There are    23 symmetry adapted cartesian basis functions of A   symmetry.
 There are    23 symmetry adapted basis functions of A   symmetry.
    23 basis functions,    44 primitive gaussians,    23 cartesian basis functions
     5 alpha electrons        5 beta electrons
       nuclear repulsion energy        13.5037314933 Hartrees.
 NAtoms=    5 NActive=    5 NUniq=    5 SFac= 1.00D+00 NAtFMM=   60 NAOKFM=F Big=F
 Integral buffers will be    131072 words long.
 Raffenetti 2 integral format.
 Two-electron integral symmetry is turned on.
 One-electron integrals computed using PRISM.
 NBasis=    23 RedAO= T EigKep=  1.75D-02  NBF=    23
 NBsUse=    23 1.00D-06 EigRej= -1.00D+00 NBFU=    23
 Initial guess from the checkpoint file:  "1_#_opt_freq_b3lyp_6-31G_d_geom_allcheck_guess_read.chk"
 B after Tr=    -0.000000   -0.000000    0.000000
         Rot=    1.000000   -0.000000   -0.000000    0.000000 Ang=  -0.00 deg.
 Keep R1 ints in memory in canonical form, NReq=8658046.
 Requested convergence on RMS density matrix=1.00D-08 within 128 cycles.
 Requested convergence on MAX density matrix=1.00D-06.
 Requested convergence on             energy=1.00D-06.
 No special actions if energy rises.
 SCF Done:  E(RB3LYP) =  -40.5181842706     A.U. after   11 cycles
            NFock= 11  Conv=0.66D-08     -V/T= 2.0100

 **********************************************************************

            Population analysis using the SCF density.

 **********************************************************************

 Orbital symmetries:
       Occupied  (A) (A) (A) (A) (A)
       Virtual   (A) (A) (A) (A) (A) (A) (A) (A) (A) (A) (A) (A)
                 (A) (A) (A) (A) (A) (A)
 The electronic state is 1-A.
 Alpha  occ. eigenvalues --  -10.16326  -0.69299  -0.39054  -0.39054  -0.39054
 Alpha virt. eigenvalues --    0.12004   0.17928   0.17928   0.17928   0.53064
 Alpha virt. eigenvalues --    0.53064   0.53064   0.90452   0.90452   0.90452
 Alpha virt. eigenvalues --    0.96071   1.10249   1.65476   1.65476   2.25551
 Alpha virt. eigenvalues --    2.25551   2.25551   4.18559
          Condensed to atoms (all electrons):
               1          2          3          4          5
     1  H    0.537576   0.385421  -0.026994  -0.026994  -0.026994
     2  C    0.385421   5.090252   0.385421   0.385421   0.385421
     3  H   -0.026994   0.385421   0.537576  -0.026994  -0.026994
     4  H   -0.026994   0.385421  -0.026994   0.537576  -0.026994
     5  H   -0.026994   0.385421  -0.026994  -0.026994   0.537576
 Mulliken charges:
               1
     1  H    0.157984
     2  C   -0.631938
     3  H    0.157984
     4  H    0.157984
     5  H    0.157984
 Sum of Mulliken charges =  -0.00000
 Mulliken charges with hydrogens summed into heavy atoms:
               1
     2  C   -0.000000
 Electronic spatial extent (au):  <R**2>=             35.1509
 Charge=             -0.0000 electrons
 Dipole moment (field-independent basis, Debye):
    X=              0.0000    Y=              0.0000    Z=              0.0000  Tot=              0.0000
 Quadrupole moment (field-independent basis, Debye-Ang):
   XX=             -8.2276   YY=             -8.2276   ZZ=             -8.2276
   XY=             -0.0000   XZ=              0.0000   YZ=              0.0000
 Traceless Quadrupole moment (field-independent basis, Debye-Ang):
   XX=             -0.0000   YY=              0.0000   ZZ=              0.0000
   XY=             -0.0000   XZ=              0.0000   YZ=              0.0000
 Octapole moment (field-independent basis, Debye-Ang**2):
  XXX=             -0.6104  YYY=             -0.0210  ZZZ=              0.5417  XYY=              0.3519
  XXY=              0.3516  XXZ=             -0.1188  XZZ=              0.2585  YZZ=             -0.3307
  YYZ=             -0.4229  XYZ=             -0.0554
 Hexadecapole moment (field-independent basis, Debye-Ang**3):
 XXXX=            -14.7639 YYYY=            -15.0802 ZZZZ=            -14.8260 XXXY=             -0.1287
 XXXZ=              0.0341 YYYX=              0.2133 YYYZ=              0.1972 ZZZX=              0.1948
 ZZZY=             -0.0818 XXYY=             -5.0134 XXZZ=             -5.2676 YYZZ=             -4.9513
 XXYZ=             -0.1154 YYXZ=             -0.2289 ZZXY=             -0.0847
 N-N= 1.350373149334D+01 E-N=-1.200782548866D+02  KE= 4.011657778908D+01
 Calling FoFJK, ICntrl=      2127 FMM=F ISym2X=0 I1Cent= 0 IOpClX= 0 NMat=1 NMatS=1 NMatT=0.
 ***** Axes restored to original set *****
 -------------------------------------------------------------------
 Center     Atomic                   Forces (Hartrees/Bohr)
 Number     Number              X              Y              Z
 -------------------------------------------------------------------
      1        1          -0.004138387   -0.000611209   -0.004364014
      2        6          -0.000000036   -0.000000324    0.000000044
      3        1          -0.001922530   -0.002791437    0.005005601
      4        1           0.005214056   -0.002467929   -0.001807364
      5        1           0.000846897    0.005870900    0.001165733
 -------------------------------------------------------------------
 Cartesian Forces:  Max     0.005870900 RMS     0.003121709

 GradGradGradGradGradGradGradGradGradGradGradGradGradGradGradGradGradGrad
 Berny optimization.
 FormGI is forming the generalized inverse of G from B-inverse, IUseBI=4.
 Internal  Forces:  Max     0.006045200 RMS     0.003645370
 Search for a local minimum.
 Step number   1 out of a maximum of   21
 All quantities printed in internal units (Hartrees-Bohrs-Radians)
 Mixed Optimization -- RFO/linear search
 Second derivative matrix not updated -- first step.
 The second derivative matrix:
                          R1        R2        R3        R4        A1
           R1           0.35458
           R2           0.00000   0.35458
           R3           0.00000   0.00000   0.35458
           R4           0.00000   0.00000   0.00000   0.35458
           A1           0.00000   0.00000   0.00000   0.00000   0.16000
           A2           0.00000   0.00000   0.00000   0.00000   0.00000
           A3           0.00000   0.00000   0.00000   0.00000   0.00000
           A4           0.00000   0.00000   0.00000   0.00000   0.00000
           A5           0.00000   0.00000   0.00000   0.00000   0.00000
           A6           0.00000   0.00000   0.00000   0.00000   0.00000
           D1           0.00000   0.00000   0.00000   0.00000   0.00000
                          A2        A3        A4        A5        A6
           A2           0.16000
           A3           0.00000   0.16000
           A4           0.00000   0.00000   0.16000
           A5           0.00000   0.00000   0.00000   0.16000
           A6           0.00000   0.00000   0.00000   0.00000   0.16000
           D1           0.00000   0.00000   0.00000   0.00000   0.00000
                          D1
           D1           0.00308
 ITU=  0
     Eigenvalues ---    0.07282   0.16000   0.16000   0.16000   0.16000
     Eigenvalues ---    0.35458   0.35458   0.35458   0.35458
 RFO step:  Lambda=-4.11772260D-04 EMin= 7.28211246D-02
 Linear search not attempted -- first point.
 Iteration  1 RMS(Cart)=  0.01026889 RMS(Int)=  0.00000001
 Iteration  2 RMS(Cart)=  0.00000001 RMS(Int)=  0.00000000
 Variable       Old X    -DE/DX   Delta X   Delta X   Delta X     New X
                                 (Linear)    (Quad)   (Total)
    R1        2.04938   0.00605   0.00000   0.01703   0.01703   2.06641
    R2        2.04938   0.00605   0.00000   0.01703   0.01703   2.06641
    R3        2.04938   0.00605   0.00000   0.01703   0.01703   2.06641
    R4        2.04938   0.00605   0.00000   0.01703   0.01703   2.06641
    A1        1.91063   0.00000   0.00000   0.00000   0.00000   1.91063
    A2        1.91063   0.00000   0.00000   0.00000   0.00000   1.91063
    A3        1.91063  -0.00000   0.00000  -0.00000  -0.00000   1.91063
    A4        1.91063   0.00000   0.00000   0.00000   0.00000   1.91063
    A5        1.91063  -0.00000   0.00000  -0.00000  -0.00000   1.91063
    A6        1.91063  -0.00000   0.00000  -0.00000  -0.00000   1.91063
    D1        2.09440   0.00000   0.00000   0.00000   0.00000   2.09440
         Item               Value     Threshold  Converged?
 Maximum Force            0.006045     0.000450     NO 
 RMS     Force            0.003645     0.000300     NO 
 Maximum Displacement     0.016537     0.001800     NO 
 RMS     Displacement     0.010269     0.001200     NO 
 Predicted change in Energy=-2.061252D-04
 GradGradGradGradGradGradGradGradGradGradGradGradGradGradGradGradGradGrad

                          Input orientation:                          
 ---------------------------------------------------------------------
 Center     Atomic      Atomic             Coordinates (Angstroms)
 Number     Number       Type             X           Y           Z
 ---------------------------------------------------------------------
      1          1           0       -0.748569   -0.110600   -0.789394
      2          6           0       -0.000000   -0.000000    0.000000
      3          1           0       -0.347771   -0.504929    0.905446
      4          1           0        0.943155   -0.446450   -0.326912
      5          1           0        0.153185    1.061981    0.210859
 ---------------------------------------------------------------------
                    Distance matrix (angstroms):
                    1          2          3          4          5
     1  H    0.000000
     2  C    1.093495   0.000000
     3  H    1.785670   1.093495   0.000000
     4  H    1.785670   1.093495   1.785670   0.000000
     5  H    1.785669   1.093495   1.785670   1.785669   0.000000
 Stoichiometry    CH4
 Framework group  C1[X(CH4)]
 Deg. of freedom     9
 Full point group                 C1      NOp   1
 Largest Abelian subgroup         C1      NOp   1
 Largest concise Abelian subgroup C1      NOp   1
                         Standard orientation:                         
 ---------------------------------------------------------------------
 Center     Atomic      Atomic             Coordinates (Angstroms)
 Number     Number       Type             X           Y           Z
 ---------------------------------------------------------------------
      1          1           0        0.540156    0.858197   -0.409219
      2          6           0       -0.000000    0.000000   -0.000000
      3          1           0       -1.075178    0.149371   -0.131952
      4          1           0        0.308786   -0.908690   -0.524084
      5          1           0        0.226237   -0.098878    1.065256
 ---------------------------------------------------------------------
 Rotational constants (GHZ):         157.2642419         157.2642134         157.2640764
 Standard basis: 6-31G(d) (6D, 7F)
 There are    23 symmetry adapted cartesian basis functions of A   symmetry.
 There are    23 symmetry adapted basis functions of A   symmetry.
    23 basis functions,    44 primitive gaussians,    23 cartesian basis functions
     5 alpha electrons        5 beta electrons
       nuclear repulsion energy        13.3924487444 Hartrees.
 NAtoms=    5 NActive=    5 NUniq=    5 SFac= 1.00D+00 NAtFMM=   60 NAOKFM=F Big=F
 Integral buffers will be    131072 words long.
 Raffenetti 2 integral format.
 Two-electron integral symmetry is turned on.
 One-electron integrals computed using PRISM.
 NBasis=    23 RedAO= T EigKep=  1.80D-02  NBF=    23
 NBsUse=    23 1.00D-06 EigRej= -1.00D+00 NBFU=    23
 Initial guess from the checkpoint file:  "1_#_opt_freq_b3lyp_6-31G_d_geom_allcheck_guess_read.chk"
 B after Tr=    -0.000000   -0.000000    0.000000
         Rot=    0.997356    0.056794    0.012167   -0.043670 Ang=   8.33 deg.
 Keep R1 ints in memory in canonical form, NReq=8658046.
 Requested convergence on RMS density matrix=1.00D-08 within 128 cycles.
 Requested convergence on MAX density matrix=1.00D-06.
 Requested convergence on             energy=1.00D-06.
 No special actions if energy rises.
 SCF Done:  E(RB3LYP) =  -40.5183831521     A.U. after    6 cycles
            NFock=  6  Conv=0.10D-08     -V/T= 2.0112
 Calling FoFJK, ICntrl=      2127 FMM=F ISym2X=0 I1Cent= 0 IOpClX= 0 NMat=1 NMatS=1 NMatT=0.
 ***** Axes restored to original set *****
 -------------------------------------------------------------------
 Center     Atomic                   Forces (Hartrees/Bohr)
 Number     Number              X              Y              Z
 -------------------------------------------------------------------
      1        1           0.000106058    0.000015547    0.000111986
      2        6          -0.000000014   -0.000000010    0.000000064
      3        1           0.000049237    0.000071627   -0.000128420
      4        1          -0.000133619    0.000063155    0.000046193
      5        1          -0.000021662   -0.000150318   -0.000029823
 -------------------------------------------------------------------
 Cartesian Forces:  Max     0.000150318 RMS     0.000080003

 GradGradGradGradGradGradGradGradGradGradGradGradGradGradGradGradGradGrad
 Berny optimization.
 Using GEDIIS/GDIIS optimizer.
 FormGI is forming the generalized inverse of G from B-inverse, IUseBI=4.
 Internal  Forces:  Max     0.000155069 RMS     0.000093424
 Search for a local minimum.
 Step number   2 out of a maximum of   21
 All quantities printed in internal units (Hartrees-Bohrs-Radians)
 Mixed Optimization -- En-DIIS/RFO-DIIS
 Update second derivatives using D2CorX and points    1    2
 DE= -1.99D-04 DEPred=-2.06D-04 R= 9.65D-01
 TightC=F SS=  1.41D+00  RLast= 3.41D-02 DXNew= 5.0454D-01 1.0217D-01
 Trust test= 9.65D-01 RLast= 3.41D-02 DXMaxT set to 3.00D-01
 The second derivative matrix:
                          R1        R2        R3        R4        A1
           R1           0.35696
           R2           0.00238   0.35696
           R3           0.00238   0.00238   0.35695
           R4           0.00238   0.00238   0.00237   0.35695
           A1           0.00000   0.00000   0.00000   0.00000   0.16000
           A2           0.00000   0.00000   0.00000   0.00000   0.00000
           A3          -0.00000  -0.00000  -0.00000  -0.00000  -0.00000
           A4          -0.00000  -0.00000  -0.00000  -0.00000   0.00000
           A5           0.00000   0.00000   0.00000   0.00000  -0.00000
           A6          -0.00000  -0.00000  -0.00000  -0.00000  -0.00000
           D1          -0.00000  -0.00000  -0.00000  -0.00000  -0.00000
                          A2        A3        A4        A5        A6
           A2           0.16000
           A3          -0.00000   0.16000
           A4           0.00000  -0.00000   0.16000
           A5           0.00000   0.00000   0.00000   0.16000
           A6          -0.00000   0.00000  -0.00000  -0.00000   0.16000
           D1          -0.00000   0.00000  -0.00000   0.00000   0.00000
                          D1
           D1           0.00308
 ITU=  1  0
 Use linear search instead of GDIIS.
     Eigenvalues ---    0.07282   0.16000   0.16000   0.16000   0.16000
     Eigenvalues ---    0.35458   0.35458   0.35458   0.36409
 RFO step:  Lambda= 0.00000000D+00 EMin= 7.28212033D-02
 Quartic linear search produced a step of -0.02560.
 Iteration  1 RMS(Cart)=  0.00026286 RMS(Int)=  0.00000000
 Iteration  2 RMS(Cart)=  0.00000000 RMS(Int)=  0.00000000
 Variable       Old X    -DE/DX   Delta X   Delta X   Delta X     New X
                                 (Linear)    (Quad)   (Total)
    R1        2.06641  -0.00016  -0.00044  -0.00000  -0.00044   2.06597
    R2        2.06641  -0.00016  -0.00044  -0.00000  -0.00044   2.06597
    R3        2.06641  -0.00015  -0.00044   0.00000  -0.00044   2.06597
    R4        2.06641  -0.00015  -0.00044   0.00000  -0.00044   2.06597
    A1        1.91063  -0.00000  -0.00000  -0.00000  -0.00000   1.91063
    A2        1.91063  -0.00000  -0.00000  -0.00000  -0.00000   1.91063
    A3        1.91063   0.00000   0.00000   0.00000   0.00000   1.91063
    A4        1.91063   0.00000  -0.00000   0.00000   0.00000   1.91063
    A5        1.91063  -0.00000   0.00000  -0.00000  -0.00000   1.91063
    A6        1.91063   0.00000   0.00000   0.00000   0.00000   1.91063
    D1        2.09440   0.00000  -0.00000   0.00000   0.00000   2.09440
         Item               Value     Threshold  Converged?
 Maximum Force            0.000155     0.000450     YES
 RMS     Force            0.000093     0.000300     YES
 Maximum Displacement     0.000423     0.001800     YES
 RMS     Displacement     0.000263     0.001200     YES
 Predicted change in Energy=-1.317681D-07
 Optimization completed.
    -- Stationary point found.
                           ----------------------------
                           !   Optimized Parameters   !
                           ! (Angstroms and Degrees)  !
 --------------------------                            --------------------------
 ! Name  Definition              Value          Derivative Info.                !
 --------------------------------------------------------------------------------
 ! R1    R(1,2)                  1.0935         -DE/DX =   -0.0002              !
 ! R2    R(2,3)                  1.0935         -DE/DX =   -0.0002              !
 ! R3    R(2,4)                  1.0935         -DE/DX =   -0.0002              !
 ! R4    R(2,5)                  1.0935         -DE/DX =   -0.0002              !
 ! A1    A(1,2,3)              109.4713         -DE/DX =    0.0                 !
 ! A2    A(1,2,4)              109.4713         -DE/DX =    0.0                 !
 ! A3    A(1,2,5)              109.4712         -DE/DX =    0.0                 !
 ! A4    A(3,2,4)              109.4713         -DE/DX =    0.0                 !
 ! A5    A(3,2,5)              109.4712         -DE/DX =    0.0                 !
 ! A6    A(4,2,5)              109.4712         -DE/DX =    0.0                 !
 ! D1    D(3,2,5,4)            120.0            -DE/DX =    0.0                 !
 --------------------------------------------------------------------------------
 GradGradGradGradGradGradGradGradGradGradGradGradGradGradGradGradGradGrad

                          Input orientation:                          
 ---------------------------------------------------------------------
 Center     Atomic      Atomic             Coordinates (Angstroms)
 Number     Number       Type             X           Y           Z
 ---------------------------------------------------------------------
      1          1           0       -0.748569   -0.110600   -0.789394
      2          6           0       -0.000000   -0.000000    0.000000
      3          1           0       -0.347771   -0.504929    0.905446
      4          1           0        0.943155   -0.446450   -0.326912
      5          1           0        0.153185    1.061981    0.210859
 ---------------------------------------------------------------------
                    Distance matrix (angstroms):
                    1          2          3          4          5
     1  H    0.000000
     2  C    1.093495   0.000000
     3  H    1.785670   1.093495   0.000000
     4  H    1.785670   1.093495   1.785670   0.000000
     5  H    1.785669   1.093495   1.785670   1.785669   0.000000
 Stoichiometry    CH4
 Framework group  C1[X(CH4)]
 Deg. of freedom     9
 Full point group                 C1      NOp   1
 Largest Abelian subgroup         C1      NOp   1
 Largest concise Abelian subgroup C1      NOp   1
                         Standard orientation:                         
 ---------------------------------------------------------------------
 Center     Atomic      Atomic             Coordinates (Angstroms)
 Number     Number       Type             X           Y           Z
 ---------------------------------------------------------------------
      1          1           0        0.540156    0.858197   -0.409219
      2          6           0       -0.000000    0.000000   -0.000000
      3          1           0       -1.075178    0.149371   -0.131952
      4          1           0        0.308786   -0.908690   -0.524084
      5          1           0        0.226237   -0.098878    1.065256
 ---------------------------------------------------------------------
 Rotational constants (GHZ):         157.2642419         157.2642134         157.2640764

 **********************************************************************

            Population analysis using the SCF density.

 **********************************************************************

 Orbital symmetries:
       Occupied  (A) (A) (A) (A) (A)
       Virtual   (A) (A) (A) (A) (A) (A) (A) (A) (A) (A) (A) (A)
                 (A) (A) (A) (A) (A) (A)
 The electronic state is 1-A.
 Alpha  occ. eigenvalues --  -10.16704  -0.69023  -0.38903  -0.38903  -0.38903
 Alpha virt. eigenvalues --    0.11786   0.17647   0.17647   0.17647   0.53332
 Alpha virt. eigenvalues --    0.53332   0.53332   0.89755   0.89755   0.89755
 Alpha virt. eigenvalues --    0.94713   1.09978   1.65656   1.65656   2.24331
 Alpha virt. eigenvalues --    2.24331   2.24331   4.17900
          Condensed to atoms (all electrons):
               1          2          3          4          5
     1  H    0.539598   0.383736  -0.026786  -0.026786  -0.026786
     2  C    0.383736   5.093147   0.383736   0.383736   0.383736
     3  H   -0.026786   0.383736   0.539598  -0.026786  -0.026786
     4  H   -0.026786   0.383736  -0.026786   0.539598  -0.026786
     5  H   -0.026786   0.383736  -0.026786  -0.026786   0.539599
 Mulliken charges:
               1
     1  H    0.157023
     2  C   -0.628090
     3  H    0.157023
     4  H    0.157023
     5  H    0.157022
 Sum of Mulliken charges =   0.00000
 Mulliken charges with hydrogens summed into heavy atoms:
               1
     2  C    0.000000
 Electronic spatial extent (au):  <R**2>=             35.4856
 Charge=              0.0000 electrons
 Dipole moment (field-independent basis, Debye):
    X=              0.0000    Y=             -0.0000    Z=              0.0000  Tot=              0.0000
 Quadrupole moment (field-independent basis, Debye-Ang):
   XX=             -8.2520   YY=             -8.2520   ZZ=             -8.2520
   XY=             -0.0000   XZ=             -0.0000   YZ=              0.0000
 Traceless Quadrupole moment (field-independent basis, Debye-Ang):
   XX=              0.0000   YY=              0.0000   ZZ=             -0.0000
   XY=             -0.0000   XZ=             -0.0000   YZ=              0.0000
 Octapole moment (field-independent basis, Debye-Ang**2):
  XXX=             -0.6968  YYY=             -0.0773  ZZZ=              0.6633  XYY=              0.4211
  XXY=              0.2211  XXZ=             -0.1784  XZZ=              0.2758  YZZ=             -0.1438
  YYZ=             -0.4849  XYZ=             -0.0302
 Hexadecapole moment (field-independent basis, Debye-Ang**3):
 XXXX=            -14.9190 YYYY=            -15.1378 ZZZZ=            -14.9628 XXXY=             -0.0822
 XXXZ=              0.1013 YYYX=              0.1112 YYYZ=              0.1398 ZZZX=              0.2043
 ZZZY=             -0.0503 XXYY=             -5.1388 XXZZ=             -5.3138 YYZZ=             -5.0950
 XXYZ=             -0.0895 YYXZ=             -0.3055 ZZXY=             -0.0290
 N-N= 1.339244874439D+01 E-N=-1.198236260623D+02  KE= 4.006990866848D+01
 1\1\GINC-MACMINIM12022MAC-MINI-2\FOpt\RB3LYP\6-31G(d)\C1H4\MACMINI_M1_
 2022\19-Jul-2024\0\\# opt freq b3lyp/6-31G(d) geom=allcheck guess=read
 \\Smiles:[2H]C\\0,1\H,-0.7485693214,-0.1106003839,-0.7893940257\C,-0.0
 000001231,-0.0000004864,0.0000000561\H,-0.3477713978,-0.504929353,0.90
 54464315\H,0.9431553976,-0.4464502721,-0.3269115956\H,0.1531854375,1.0
 619805028,0.2108591124\\Version=EM64M-G16RevA.03\State=1-A\HF=-40.5183
 832\RMSD=1.015e-09\RMSF=8.000e-05\Dipole=0.0000002,0.0000003,0.\Quadru
 pole=0.0000009,-0.000002,0.000001,0.,-0.0000003,-0.0000014\PG=C01 [X(C
 1H4)]\\@


 SCIENCE AT ITS BEST PROVIDES US WITH BETTER QUESTIONS, 
 NOT ABSOLUTE ANSWERS

                                    -- NORMAN COUSINS, 1976
 Job cpu time:       0 days  0 hours  0 minutes  2.2 seconds.
 Elapsed time:       0 days  0 hours  0 minutes  2.0 seconds.
 File lengths (MBytes):  RWF=      6 Int=      0 D2E=      0 Chk=      2 Scr=      1
 Normal termination of Gaussian 16 at Fri Jul 19 15:54:19 2024.
 Link1:  Proceeding to internal job step number  2.
 --------------------------------------------------------------------
 #N Geom=AllCheck Guess=TCheck SCRF=Check GenChk RB3LYP/6-31G(d) Freq
 --------------------------------------------------------------------
 1/10=4,29=7,30=1,38=1,40=1/1,3;
 2/12=2,40=1/2;
 3/5=1,6=6,7=1,11=2,14=-4,25=1,30=1,70=2,71=2,74=-5,116=1,140=1/1,2,3;
 4/5=101/1;
 5/5=2,38=6,98=1/2;
 8/6=4,10=90,11=11/1;
 11/6=1,8=1,9=11,15=111,16=1/1,2,10;
 10/6=1/2;
 6/7=2,8=2,9=2,10=2,28=1/1;
 7/8=1,10=1,25=1/1,2,3,16;
 1/10=4,30=1/3;
 99//99;
 Structure from the checkpoint file:  "1_#_opt_freq_b3lyp_6-31G_d_geom_allcheck_guess_read.chk"
 ------------
 Smiles:[2H]C
 ------------
 Charge =  0 Multiplicity = 1
 Redundant internal coordinates found in file.  (old form).
 H,0,-0.7485693214,-0.1106003839,-0.7893940257
 C,0,-0.0000001231,-0.0000004864,0.0000000561
 H,0,-0.3477713978,-0.504929353,0.9054464315
 H,0,0.9431553976,-0.4464502721,-0.3269115956
 H,0,0.1531854375,1.0619805028,0.2108591124
 Recover connectivity data from disk.

 GradGradGradGradGradGradGradGradGradGradGradGradGradGradGradGradGradGrad
 Berny optimization.
 Initialization pass.
                           ----------------------------
                           !    Initial Parameters    !
                           ! (Angstroms and Degrees)  !
 --------------------------                            --------------------------
 ! Name  Definition              Value          Derivative Info.                !
 --------------------------------------------------------------------------------
 ! R1    R(1,2)                  1.0935         calculate D2E/DX2 analytically  !
 ! R2    R(2,3)                  1.0935         calculate D2E/DX2 analytically  !
 ! R3    R(2,4)                  1.0935         calculate D2E/DX2 analytically  !
 ! R4    R(2,5)                  1.0935         calculate D2E/DX2 analytically  !
 ! A1    A(1,2,3)              109.4713         calculate D2E/DX2 analytically  !
 ! A2    A(1,2,4)              109.4713         calculate D2E/DX2 analytically  !
 ! A3    A(1,2,5)              109.4712         calculate D2E/DX2 analytically  !
 ! A4    A(3,2,4)              109.4713         calculate D2E/DX2 analytically  !
 ! A5    A(3,2,5)              109.4712         calculate D2E/DX2 analytically  !
 ! A6    A(4,2,5)              109.4712         calculate D2E/DX2 analytically  !
 ! D1    D(3,2,5,4)            120.0            calculate D2E/DX2 analytically  !
 --------------------------------------------------------------------------------
 Trust Radius=3.00D-01 FncErr=1.00D-07 GrdErr=1.00D-07 EigMax=2.50D+02 EigMin=1.00D-04
 Number of steps in this run=      2 maximum allowed number of steps=      2.
 GradGradGradGradGradGradGradGradGradGradGradGradGradGradGradGradGradGrad

                          Input orientation:                          
 ---------------------------------------------------------------------
 Center     Atomic      Atomic             Coordinates (Angstroms)
 Number     Number       Type             X           Y           Z
 ---------------------------------------------------------------------
      1          1           0       -0.748569   -0.110600   -0.789394
      2          6           0       -0.000000   -0.000000    0.000000
      3          1           0       -0.347771   -0.504929    0.905446
      4          1           0        0.943155   -0.446450   -0.326912
      5          1           0        0.153185    1.061981    0.210859
 ---------------------------------------------------------------------
                    Distance matrix (angstroms):
                    1          2          3          4          5
     1  H    0.000000
     2  C    1.093495   0.000000
     3  H    1.785670   1.093495   0.000000
     4  H    1.785670   1.093495   1.785670   0.000000
     5  H    1.785669   1.093495   1.785670   1.785669   0.000000
 Stoichiometry    CH4
 Framework group  C1[X(CH4)]
 Deg. of freedom     9
 Full point group                 C1      NOp   1
 Largest Abelian subgroup         C1      NOp   1
 Largest concise Abelian subgroup C1      NOp   1
                         Standard orientation:                         
 ---------------------------------------------------------------------
 Center     Atomic      Atomic             Coordinates (Angstroms)
 Number     Number       Type             X           Y           Z
 ---------------------------------------------------------------------
      1          1           0        0.540156    0.858197   -0.409219
      2          6           0       -0.000000    0.000000   -0.000000
      3          1           0       -1.075178    0.149371   -0.131952
      4          1           0        0.308786   -0.908690   -0.524084
      5          1           0        0.226237   -0.098878    1.065256
 ---------------------------------------------------------------------
 Rotational constants (GHZ):         157.2642419         157.2642134         157.2640764
 Standard basis: 6-31G(d) (6D, 7F)
 There are    23 symmetry adapted cartesian basis functions of A   symmetry.
 There are    23 symmetry adapted basis functions of A   symmetry.
    23 basis functions,    44 primitive gaussians,    23 cartesian basis functions
     5 alpha electrons        5 beta electrons
       nuclear repulsion energy        13.3924487444 Hartrees.
 NAtoms=    5 NActive=    5 NUniq=    5 SFac= 1.00D+00 NAtFMM=   60 NAOKFM=F Big=F
 Integral buffers will be    131072 words long.
 Raffenetti 2 integral format.
 Two-electron integral symmetry is turned on.
 One-electron integrals computed using PRISM.
 NBasis=    23 RedAO= T EigKep=  1.80D-02  NBF=    23
 NBsUse=    23 1.00D-06 EigRej= -1.00D+00 NBFU=    23
 Initial guess from the checkpoint file:  "1_#_opt_freq_b3lyp_6-31G_d_geom_allcheck_guess_read.chk"
 B after Tr=     0.000000    0.000000   -0.000000
         Rot=    1.000000   -0.000000   -0.000000    0.000000 Ang=   0.00 deg.
 Keep R1 ints in memory in canonical form, NReq=8658046.
 Requested convergence on RMS density matrix=1.00D-08 within 128 cycles.
 Requested convergence on MAX density matrix=1.00D-06.
 Requested convergence on             energy=1.00D-06.
 No special actions if energy rises.
 Skip diagonalization as Alpha Fock matrix is already diagonal.
 SCF Done:  E(RB3LYP) =  -40.5183831521     A.U. after    1 cycles
            NFock=  1  Conv=0.00D+00     -V/T= 2.0112
 DoSCS=F DFT=T ScalE2(SS,OS)=  1.000000  1.000000
 Range of M.O.s used for correlation:     1    23
 NBasis=    23 NAE=     5 NBE=     5 NFC=     0 NFV=     0
 NROrb=     23 NOA=     5 NOB=     5 NVA=    18 NVB=    18
 Symmetrizing basis deriv contribution to polar:
 IMax=3 JMax=2 DiffMx= 0.00D+00
 G2DrvN: will do     6 centers at a time, making    1 passes.
 Calling FoFCou, ICntrl=  3107 FMM=F I1Cent=   0 AccDes= 0.00D+00.
 End of G2Drv F.D. properties file   721 does not exist.
 End of G2Drv F.D. properties file   722 does not exist.
 End of G2Drv F.D. properties file   788 does not exist.
          IDoAtm=11111
          Differentiating once with respect to electric field.
                with respect to dipole field.
          Differentiating once with respect to nuclear coordinates.
 Keep R1 ints in memory in canonical form, NReq=8627476.
          There are    18 degrees of freedom in the 1st order CPHF.  IDoFFX=6 NUNeed=     3.
     15 vectors produced by pass  0 Test12= 5.00D-16 5.56D-09 XBig12= 6.11D+00 1.41D+00.
 AX will form    15 AO Fock derivatives at one time.
     15 vectors produced by pass  1 Test12= 5.00D-16 5.56D-09 XBig12= 5.12D-02 1.28D-01.
     15 vectors produced by pass  2 Test12= 5.00D-16 5.56D-09 XBig12= 1.59D-05 2.11D-03.
     15 vectors produced by pass  3 Test12= 5.00D-16 5.56D-09 XBig12= 1.25D-08 5.50D-05.
      8 vectors produced by pass  4 Test12= 5.00D-16 5.56D-09 XBig12= 4.25D-13 4.49D-07.
      2 vectors produced by pass  5 Test12= 5.00D-16 5.56D-09 XBig12= 1.08D-15 1.29D-08.
 InvSVY:  IOpt=1 It=  1 EMax= 1.55D-15
 Solved reduced A of dimension    70 with    15 vectors.
 Isotropic polarizability for W=    0.000000       12.36 Bohr**3.
 End of Minotr F.D. properties file   721 does not exist.
 End of Minotr F.D. properties file   722 does not exist.
 End of Minotr F.D. properties file   788 does not exist.

 **********************************************************************

            Population analysis using the SCF density.

 **********************************************************************

 Orbital symmetries:
       Occupied  (A) (A) (A) (A) (A)
       Virtual   (A) (A) (A) (A) (A) (A) (A) (A) (A) (A) (A) (A)
                 (A) (A) (A) (A) (A) (A)
 The electronic state is 1-A.
 Alpha  occ. eigenvalues --  -10.16704  -0.69023  -0.38903  -0.38903  -0.38903
 Alpha virt. eigenvalues --    0.11786   0.17647   0.17647   0.17647   0.53332
 Alpha virt. eigenvalues --    0.53332   0.53332   0.89755   0.89755   0.89755
 Alpha virt. eigenvalues --    0.94713   1.09978   1.65656   1.65656   2.24331
 Alpha virt. eigenvalues --    2.24331   2.24331   4.17900
          Condensed to atoms (all electrons):
               1          2          3          4          5
     1  H    0.539598   0.383736  -0.026786  -0.026786  -0.026786
     2  C    0.383736   5.093147   0.383736   0.383736   0.383736
     3  H   -0.026786   0.383736   0.539598  -0.026786  -0.026786
     4  H   -0.026786   0.383736  -0.026786   0.539598  -0.026786
     5  H   -0.026786   0.383736  -0.026786  -0.026786   0.539599
 Mulliken charges:
               1
     1  H    0.157023
     2  C   -0.628090
     3  H    0.157023
     4  H    0.157023
     5  H    0.157022
 Sum of Mulliken charges =   0.00000
 Mulliken charges with hydrogens summed into heavy atoms:
               1
     2  C    0.000000
 APT charges:
               1
     1  H   -0.000254
     2  C    0.001017
     3  H   -0.000255
     4  H   -0.000254
     5  H   -0.000254
 Sum of APT charges =  -0.00000
 APT charges with hydrogens summed into heavy atoms:
               1
     2  C   -0.000000
 Electronic spatial extent (au):  <R**2>=             35.4856
 Charge=             -0.0000 electrons
 Dipole moment (field-independent basis, Debye):
    X=              0.0000    Y=             -0.0000    Z=              0.0000  Tot=              0.0000
 Quadrupole moment (field-independent basis, Debye-Ang):
   XX=             -8.2520   YY=             -8.2520   ZZ=             -8.2520
   XY=             -0.0000   XZ=             -0.0000   YZ=              0.0000
 Traceless Quadrupole moment (field-independent basis, Debye-Ang):
   XX=              0.0000   YY=              0.0000   ZZ=             -0.0000
   XY=             -0.0000   XZ=             -0.0000   YZ=              0.0000
 Octapole moment (field-independent basis, Debye-Ang**2):
  XXX=             -0.6968  YYY=             -0.0773  ZZZ=              0.6633  XYY=              0.4211
  XXY=              0.2211  XXZ=             -0.1784  XZZ=              0.2758  YZZ=             -0.1438
  YYZ=             -0.4849  XYZ=             -0.0302
 Hexadecapole moment (field-independent basis, Debye-Ang**3):
 XXXX=            -14.9190 YYYY=            -15.1378 ZZZZ=            -14.9628 XXXY=             -0.0822
 XXXZ=              0.1013 YYYX=              0.1112 YYYZ=              0.1398 ZZZX=              0.2043
 ZZZY=             -0.0503 XXYY=             -5.1388 XXZZ=             -5.3138 YYZZ=             -5.0950
 XXYZ=             -0.0895 YYXZ=             -0.3055 ZZXY=             -0.0290
 N-N= 1.339244874439D+01 E-N=-1.198236260623D+02  KE= 4.006990866848D+01
  Exact polarizability:  12.356  -0.000  12.356   0.000  -0.000  12.356
 Approx polarizability:  14.605   0.000  14.605   0.000  -0.000  14.605
 Calling FoFJK, ICntrl=    100127 FMM=F ISym2X=0 I1Cent= 0 IOpClX= 0 NMat=1 NMatS=1 NMatT=0.
 Full mass-weighted force constant matrix:
 Low frequencies ---   -0.0001    0.0012    0.0015   43.8796   43.9769   44.6563
 Low frequencies --- 1373.5376 1373.5435 1373.5558
 Diagonal vibrational polarizability:
        0.2906263       0.2906257       0.2906303
 Harmonic frequencies (cm**-1), IR intensities (KM/Mole), Raman scattering
 activities (A**4/AMU), depolarization ratios for plane and unpolarized
 incident light, reduced masses (AMU), force constants (mDyne/A),
 and normal coordinates:
                      1                      2                      3
                      A                      A                      A
 Frequencies --   1373.5376              1373.5435              1373.5558
 Red. masses --      1.1787                 1.1787                 1.1787
 Frc consts  --      1.3102                 1.3103                 1.3103
 IR Inten    --     15.3822                15.3824                15.3824
  Atom  AN      X      Y      Z        X      Y      Z        X      Y      Z
     1   1    -0.03   0.28   0.53    -0.12  -0.01   0.06     0.51  -0.26   0.17
     2   6     0.01  -0.05  -0.11    -0.04  -0.11   0.04    -0.12   0.04  -0.03
     3   1    -0.03   0.23   0.56     0.08   0.55  -0.22    -0.11  -0.09   0.05
     4   1     0.10  -0.22   0.29     0.31   0.26  -0.36     0.48   0.05   0.27
     5   1    -0.18   0.29  -0.02     0.26   0.51   0.02     0.50  -0.15  -0.16
                      4                      5                      6
                      A                      A                      A
 Frequencies --   1593.2878              1593.2927              3051.5176
 Red. masses --      1.0078                 1.0078                 1.0078
 Frc consts  --      1.5074                 1.5074                 5.5293
 IR Inten    --      0.0000                 0.0000                 0.0000
  Atom  AN      X      Y      Z        X      Y      Z        X      Y      Z
     1   1    -0.02  -0.20  -0.46    -0.43   0.23  -0.09    -0.25  -0.39   0.19
     2   6     0.00   0.00   0.00     0.00  -0.00   0.00    -0.00  -0.00  -0.00
     3   1    -0.01   0.27   0.42     0.09   0.42  -0.26     0.49  -0.07   0.06
     4   1     0.47   0.18  -0.03     0.11  -0.21   0.44    -0.14   0.42   0.24
     5   1    -0.43  -0.24   0.07     0.23  -0.43  -0.09    -0.10   0.05  -0.49
                      7                      8                      9
                      A                      A                      A
 Frequencies --   3161.1303              3161.1601              3161.1842
 Red. masses --      1.1019                 1.1019                 1.1019
 Frc consts  --      6.4873                 6.4874                 6.4875
 IR Inten    --     26.4428                26.4426                26.4432
  Atom  AN      X      Y      Z        X      Y      Z        X      Y      Z
     1   1     0.07   0.08  -0.05     0.21   0.34  -0.17    -0.37  -0.58   0.27
     2   6     0.05  -0.07  -0.03    -0.07  -0.04  -0.05     0.02   0.05  -0.07
     3   1    -0.54   0.06  -0.07     0.65  -0.10   0.07    -0.03   0.02  -0.02
     4   1    -0.22   0.67   0.39    -0.10   0.24   0.14     0.01  -0.02  -0.03
     5   1     0.04  -0.03   0.13     0.10  -0.06   0.51     0.15  -0.05   0.65

 -------------------
 - Thermochemistry -
 -------------------
 Temperature   298.150 Kelvin.  Pressure   1.00000 Atm.
 Atom     1 has atomic number  1 and mass   1.00783
 Atom     2 has atomic number  6 and mass  12.00000
 Atom     3 has atomic number  1 and mass   1.00783
 Atom     4 has atomic number  1 and mass   1.00783
 Atom     5 has atomic number  1 and mass   1.00783
 Molecular mass:    16.03130 amu.
 Principal axes and moments of inertia in atomic units:
                           1         2         3
     Eigenvalues --    11.47585  11.47585  11.47586
           X            1.00000   0.00000  -0.00000
           Y           -0.00000   1.00000   0.00000
           Z            0.00000  -0.00000   1.00000
 This molecule is an asymmetric top.
 Rotational symmetry number  1.
 Rotational temperatures (Kelvin)      7.54749     7.54749     7.54749
 Rotational constants (GHZ):         157.26424   157.26421   157.26408
 Zero-point vibrational energy     118682.8 (Joules/Mol)
                                   28.36586 (Kcal/Mol)
 Vibrational temperatures:   1976.21  1976.22  1976.24  2292.39  2292.39
          (Kelvin)           4390.45  4548.16  4548.20  4548.24
 
 Zero-point correction=                           0.045204 (Hartree/Particle)
 Thermal correction to Energy=                    0.048068
 Thermal correction to Enthalpy=                  0.049012
 Thermal correction to Gibbs Free Energy=         0.025534
 Sum of electronic and zero-point Energies=            -40.473179
 Sum of electronic and thermal Energies=               -40.470315
 Sum of electronic and thermal Enthalpies=             -40.469371
 Sum of electronic and thermal Free Energies=          -40.492849
 
                     E (Thermal)             CV                S
                      KCal/Mol        Cal/Mol-Kelvin    Cal/Mol-Kelvin
 Total                   30.163              6.417             49.414
 Electronic               0.000              0.000              0.000
 Translational            0.889              2.981             34.261
 Rotational               0.889              2.981             15.077
 Vibrational             28.386              0.455              0.076
                       Q            Log10(Q)             Ln(Q)
 Total Bot       0.179982D-11        -11.744770        -27.043332
 Total V=0       0.111571D+10          9.047553         20.832760
 Vib (Bot)       0.162106D-20        -20.790200        -47.871205
 Vib (V=0)       0.100490D+01          0.002122          0.004887
 Electronic      0.100000D+01          0.000000          0.000000
 Translational   0.252294D+07          6.401907         14.740936
 Rotational      0.440072D+03          2.643523          6.086937
 ***** Axes restored to original set *****
 -------------------------------------------------------------------
 Center     Atomic                   Forces (Hartrees/Bohr)
 Number     Number              X              Y              Z
 -------------------------------------------------------------------
      1        1           0.000106058    0.000015547    0.000111986
      2        6          -0.000000014   -0.000000009    0.000000064
      3        1           0.000049237    0.000071627   -0.000128419
      4        1          -0.000133619    0.000063155    0.000046193
      5        1          -0.000021662   -0.000150318   -0.000029824
 -------------------------------------------------------------------
 Cartesian Forces:  Max     0.000150318 RMS     0.000080003
 FormGI is forming the generalized inverse of G from B-inverse, IUseBI=4.

 GradGradGradGradGradGradGradGradGradGradGradGradGradGradGradGradGradGrad
 Berny optimization.
 Internal  Forces:  Max     0.000155068 RMS     0.000093424
 Search for a local minimum.
 Step number   1 out of a maximum of    2
 All quantities printed in internal units (Hartrees-Bohrs-Radians)
 Second derivative matrix not updated -- analytic derivatives used.
 The second derivative matrix:
                          R1        R2        R3        R4        A1
           R1           0.34833
           R2           0.00228   0.34832
           R3           0.00228   0.00228   0.34831
           R4           0.00228   0.00228   0.00228   0.34833
           A1           0.00482   0.01060  -0.00675  -0.00868   0.09599
           A2           0.00482  -0.00675   0.01060  -0.00868  -0.03698
           A3           0.00482  -0.00675  -0.00675   0.00868  -0.03646
           A4          -0.00096   0.00482   0.00482  -0.00868   0.00511
           A5          -0.00675   0.00771  -0.00964   0.00868  -0.01620
           A6          -0.00675  -0.00964   0.00771   0.00868  -0.01146
           D1          -0.00945   0.00472   0.00472  -0.00000  -0.01067
                          A2        A3        A4        A5        A6
           A2           0.09598
           A3          -0.03646   0.09704
           A4           0.00511   0.00880   0.05389
           A5          -0.01146  -0.01646  -0.03646   0.10677
           A6          -0.01620  -0.01646  -0.03646  -0.02620   0.10677
           D1          -0.01067  -0.00939   0.02135   0.00469   0.00469
                          D1
           D1           0.03190
 ITU=  0
     Eigenvalues ---    0.05651   0.12550   0.12550   0.13654   0.13770
     Eigenvalues ---    0.34716   0.34877   0.34878   0.35515
 Angle between quadratic step and forces=   0.11 degrees.
 Linear search not attempted -- first point.
 Iteration  1 RMS(Cart)=  0.00026306 RMS(Int)=  0.00000000
 Iteration  2 RMS(Cart)=  0.00000000 RMS(Int)=  0.00000000
 Variable       Old X    -DE/DX   Delta X   Delta X   Delta X     New X
                                 (Linear)    (Quad)   (Total)
    R1        2.06641  -0.00016   0.00000  -0.00044  -0.00044   2.06597
    R2        2.06641  -0.00016   0.00000  -0.00044  -0.00044   2.06597
    R3        2.06641  -0.00015   0.00000  -0.00044  -0.00044   2.06597
    R4        2.06641  -0.00015   0.00000  -0.00044  -0.00044   2.06597
    A1        1.91063  -0.00000   0.00000  -0.00000  -0.00000   1.91063
    A2        1.91063  -0.00000   0.00000  -0.00000  -0.00000   1.91063
    A3        1.91063   0.00000   0.00000   0.00000   0.00000   1.91063
    A4        1.91063   0.00000   0.00000   0.00000   0.00000   1.91063
    A5        1.91063  -0.00000   0.00000   0.00000   0.00000   1.91063
    A6        1.91063   0.00000   0.00000   0.00000   0.00000   1.91063
    D1        2.09440   0.00000   0.00000   0.00000   0.00000   2.09440
         Item               Value     Threshold  Converged?
 Maximum Force            0.000155     0.000450     YES
 RMS     Force            0.000093     0.000300     YES
 Maximum Displacement     0.000423     0.001800     YES
 RMS     Displacement     0.000263     0.001200     YES
 Predicted change in Energy=-1.351663D-07
 Optimization completed.
    -- Stationary point found.
                           ----------------------------
                           !   Optimized Parameters   !
                           ! (Angstroms and Degrees)  !
 --------------------------                            --------------------------
 ! Name  Definition              Value          Derivative Info.                !
 --------------------------------------------------------------------------------
 ! R1    R(1,2)                  1.0935         -DE/DX =   -0.0002              !
 ! R2    R(2,3)                  1.0935         -DE/DX =   -0.0002              !
 ! R3    R(2,4)                  1.0935         -DE/DX =   -0.0002              !
 ! R4    R(2,5)                  1.0935         -DE/DX =   -0.0002              !
 ! A1    A(1,2,3)              109.4713         -DE/DX =    0.0                 !
 ! A2    A(1,2,4)              109.4713         -DE/DX =    0.0                 !
 ! A3    A(1,2,5)              109.4712         -DE/DX =    0.0                 !
 ! A4    A(3,2,4)              109.4713         -DE/DX =    0.0                 !
 ! A5    A(3,2,5)              109.4712         -DE/DX =    0.0                 !
 ! A6    A(4,2,5)              109.4712         -DE/DX =    0.0                 !
 ! D1    D(3,2,5,4)            120.0            -DE/DX =    0.0                 !
 --------------------------------------------------------------------------------
 GradGradGradGradGradGradGradGradGradGradGradGradGradGradGradGradGradGrad


 ----------------------------------------------------------------------

 Electric dipole moment (input orientation):
 (Debye = 10**-18 statcoulomb cm , SI units = C m)
                  (au)            (Debye)         (10**-30 SI)
   Tot        0.000000D+00      0.000000D+00      0.000000D+00
   x          0.000000D+00      0.000000D+00      0.000000D+00
   y          0.000000D+00      0.000000D+00      0.000000D+00
   z          0.000000D+00      0.000000D+00      0.000000D+00

 Dipole polarizability, Alpha (input orientation).
 (esu units = cm**3 , SI units = C**2 m**2 J**-1)
 Alpha(0;0):
               (au)            (10**-24 esu)      (10**-40 SI)
   iso        0.123557D+02      0.183093D+01      0.203718D+01
   aniso      0.309381D-04      0.458456D-05      0.510101D-05
   xx         0.123557D+02      0.183093D+01      0.203718D+01
   yx         0.124471D-04      0.184447D-05      0.205225D-05
   yy         0.123557D+02      0.183093D+01      0.203718D+01
   zx         0.000000D+00      0.000000D+00      0.000000D+00
   zy         0.000000D+00      0.000000D+00      0.000000D+00
   zz         0.123557D+02      0.183093D+01      0.203718D+01

 ----------------------------------------------------------------------

 Dipole orientation:
     1         -0.05009031          1.87404144         -0.86919156
     6          0.00000023         -0.00000022         -0.00000090
     1         -0.92495447         -1.36294314         -1.24775042
     1          1.96399963         -0.56629443          0.30339656
     1         -0.98895507          0.05519639          1.81354634

 Electric dipole moment (dipole orientation):
 (Debye = 10**-18 statcoulomb cm , SI units = C m)
                  (au)            (Debye)         (10**-30 SI)
   Tot        0.000000D+00      0.000000D+00      0.000000D+00
   x          0.000000D+00      0.000000D+00      0.000000D+00
   y          0.000000D+00      0.000000D+00      0.000000D+00
   z          0.000000D+00      0.000000D+00      0.000000D+00

 Dipole polarizability, Alpha (dipole orientation).
 (esu units = cm**3 , SI units = C**2 m**2 J**-1)
 Alpha(0;0):
               (au)            (10**-24 esu)      (10**-40 SI)
   iso        0.123557D+02      0.183093D+01      0.203718D+01
   aniso      0.309381D-04      0.458456D-05      0.510101D-05
   xx         0.123557D+02      0.183093D+01      0.203718D+01
   yx         0.000000D+00      0.000000D+00      0.000000D+00
   yy         0.123557D+02      0.183093D+01      0.203718D+01
   zx         0.000000D+00      0.000000D+00      0.000000D+00
   zy         0.000000D+00      0.000000D+00      0.000000D+00
   zz         0.123557D+02      0.183093D+01      0.203718D+01

 ----------------------------------------------------------------------
 1\1\GINC-MACMINIM12022MAC-MINI-2\Freq\RB3LYP\6-31G(d)\C1H4\MACMINI_M1_
 2022\19-Jul-2024\0\\#N Geom=AllCheck Guess=TCheck SCRF=Check GenChk RB
 3LYP/6-31G(d) Freq\\Smiles:[2H]C\\0,1\H,-0.7485693214,-0.1106003839,-0
 .7893940257\C,-0.0000001231,-0.0000004864,0.0000000561\H,-0.3477713978
 ,-0.504929353,0.9054464315\H,0.9431553976,-0.4464502721,-0.3269115956\
 H,0.1531854375,1.0619805028,0.2108591124\\Version=EM64M-G16RevA.03\Sta
 te=1-A\HF=-40.5183832\RMSD=0.000e+00\RMSF=8.000e-05\ZeroPoint=0.045203
 9\Thermal=0.048068\Dipole=0.0000002,0.0000003,0.\DipoleDeriv=-0.030093
 9,-0.015271,-0.1089943,-0.0152713,0.0710073,-0.0161046,-0.1089931,-0.0
 161042,-0.041675,0.0010184,-0.0000006,-0.0000004,0.0000025,0.0010164,0
 .0000018,-0.0000013,-0.0000002,0.0010163,0.0509539,-0.0323886,0.058080
 5,-0.032388,0.0262361,0.0843276,0.0580814,0.0843281,-0.0779539,-0.0908
 128,0.0776666,0.0568717,0.077666,0.0364996,-0.02692,0.0568708,-0.02692
 02,0.0535503,0.0689344,-0.0300064,-0.0059574,-0.0300092,-0.1347594,-0.
 0413048,-0.0059578,-0.0413036,0.0650623\Polar=12.3557115,0.0000124,12.
 3557223,-0.0000022,-0.0000092,12.3557286\Quadrupole=0.0000009,-0.00000
 2,0.000001,0.,-0.0000003,-0.0000014\PG=C01 [X(C1H4)]\NImag=0\\0.188097
 76,0.02088081,0.04987091,0.14901800,0.02201592,0.20393097,-0.17668533,
 -0.01897664,-0.13542634,0.55841927,-0.01897653,-0.05106605,-0.02000759
 ,0.00000675,0.55842293,-0.13542624,-0.02000771,-0.19107458,0.00000479,
 -0.00000024,0.55842122,0.00919951,0.01254589,-0.01923320,-0.07597785,-
 0.04024297,0.07216390,0.07728334,0.00250681,0.00115786,-0.00423106,-0.
 04024368,-0.10669017,0.10477571,0.04428218,0.11107815,0.00892583,0.010
 51610,-0.01804861,0.07216450,0.10477582,-0.23614431,-0.07940727,-0.115
 29156,0.25352461,-0.01774882,0.00868750,0.00799641,-0.25211726,0.09649
 741,0.07066055,-0.00776998,0.00334761,0.00158099,0.27110127,-0.0042791
 0,0.00073118,0.00231510,0.09649727,-0.09393497,-0.03344788,-0.01532499
 ,0.00719278,0.00343389,-0.10618253,0.09704303,-0.02125452,0.01166684,0
 .00932655,0.07066046,-0.03344817,-0.07275042,0.02347063,-0.01339994,-0
 .00711409,-0.07775252,0.03680525,0.07373201,-0.00286312,-0.02313756,-0
 .00235486,-0.05363883,-0.03728467,-0.00740300,-0.00273501,-0.00989293,
 -0.00326405,0.00653479,0.02928935,0.00487595,0.05270217,-0.00013199,-0
 .00069390,-0.00009236,-0.03728371,-0.30673174,-0.05131988,-0.00126012,
 -0.01273862,-0.00343426,-0.00234999,-0.01103203,-0.00162398,0.04102581
 ,0.33119630,-0.00126307,-0.02419115,-0.00413433,-0.00740342,-0.0513198
 2,-0.05845192,0.00300596,0.02814685,0.00778240,-0.00248543,-0.00910636
 ,-0.00319404,0.00814597,0.05647048,0.05799789\\-0.00010606,-0.00001555
 ,-0.00011199,0.00000001,0.,-0.00000006,-0.00004924,-0.00007163,0.00012
 842,0.00013362,-0.00006315,-0.00004619,0.00002166,0.00015032,0.0000298
 2\\\@


 Where a calculator on the ENIAC is equipped with 18,000
 vacuum tubes and weighs 30 tons, computers inthe future
 may  have only 1,000 vacuum tubes and weigh only 1 1/2 tons.
              ---Popular Mechanics, March 1949
 Job cpu time:       0 days  0 hours  0 minutes  2.0 seconds.
 Elapsed time:       0 days  0 hours  0 minutes  1.8 seconds.
 File lengths (MBytes):  RWF=      6 Int=      0 D2E=      0 Chk=      2 Scr=      1
 Normal termination of Gaussian 16 at Fri Jul 19 15:54:21 2024.
