 Entering Gaussian System, Link 0=g16
 Input=/Users/macmini_m1_2022/Poclab/ichizawa/Gaussian/20240719_substituents_1_1000/2_#_opt_pm6_MMFF.gjf
 Output=/Users/macmini_m1_2022/Poclab/ichizawa/Gaussian/20240719_substituents_1_1000/2_#_opt_pm6_MMFF.log
 Initial command:
 /Applications/g16/l1.exe "/Users/macmini_m1_2022/Poclab/ichizawa/Gaussian/20240719_substituents_1_1000/Gau-98614.inp" -scrdir="/Users/macmini_m1_2022/Poclab/ichizawa/Gaussian/20240719_substituents_1_1000/"
 Entering Link 1 = /Applications/g16/l1.exe PID=     98615.
  
 Copyright (c) 1988,1990,1992,1993,1995,1998,2003,2009,2016,
            Gaussian, Inc.  All Rights Reserved.
  
 This is part of the Gaussian(R) 16 program.  It is based on
 the Gaussian(R) 09 system (copyright 2009, Gaussian, Inc.),
 the Gaussian(R) 03 system (copyright 2003, Gaussian, Inc.),
 the Gaussian(R) 98 system (copyright 1998, Gaussian, Inc.),
 the Gaussian(R) 94 system (copyright 1995, Gaussian, Inc.),
 the Gaussian 92(TM) system (copyright 1992, Gaussian, Inc.),
 the Gaussian 90(TM) system (copyright 1990, Gaussian, Inc.),
 the Gaussian 88(TM) system (copyright 1988, Gaussian, Inc.),
 the Gaussian 86(TM) system (copyright 1986, Carnegie Mellon
 University), and the Gaussian 82(TM) system (copyright 1983,
 Carnegie Mellon University). Gaussian is a federally registered
 trademark of Gaussian, Inc.
  
 This software contains proprietary and confidential information,
 including trade secrets, belonging to Gaussian, Inc.
  
 This software is provided under written license and may be
 used, copied, transmitted, or stored only in accord with that
 written license.
  
 The following legend is applicable only to US Government
 contracts under FAR:
  
                    RESTRICTED RIGHTS LEGEND
  
 Use, reproduction and disclosure by the US Government is
 subject to restrictions as set forth in subparagraphs (a)
 and (c) of the Commercial Computer Software - Restricted
 Rights clause in FAR 52.227-19.
  
 Gaussian, Inc.
 340 Quinnipiac St., Bldg. 40, Wallingford CT 06492
  
  
 ---------------------------------------------------------------
 Warning -- This program may not be used in any manner that
 competes with the business of Gaussian, Inc. or will provide
 assistance to any competitor of Gaussian, Inc.  The licensee
 of this program is prohibited from giving any competitor of
 Gaussian, Inc. access to this program.  By using this program,
 the user acknowledges that Gaussian, Inc. is engaged in the
 business of creating and licensing software in the field of
 computational chemistry and represents and warrants to the
 licensee that it is not a competitor of Gaussian, Inc. and that
 it will not use this program in any manner prohibited above.
 ---------------------------------------------------------------
  

 Cite this work as:
 Gaussian 16, Revision A.03,
 M. J. Frisch, G. W. Trucks, H. B. Schlegel, G. E. Scuseria, 
 M. A. Robb, J. R. Cheeseman, G. Scalmani, V. Barone, 
 G. A. Petersson, H. Nakatsuji, X. Li, M. Caricato, A. V. Marenich, 
 J. Bloino, B. G. Janesko, R. Gomperts, B. Mennucci, H. P. Hratchian, 
 J. V. Ortiz, A. F. Izmaylov, J. L. Sonnenberg, D. Williams-Young, 
 F. Ding, F. Lipparini, F. Egidi, J. Goings, B. Peng, A. Petrone, 
 T. Henderson, D. Ranasinghe, V. G. Zakrzewski, J. Gao, N. Rega, 
 G. Zheng, W. Liang, M. Hada, M. Ehara, K. Toyota, R. Fukuda, 
 J. Hasegawa, M. Ishida, T. Nakajima, Y. Honda, O. Kitao, H. Nakai, 
 T. Vreven, K. Throssell, J. A. Montgomery, Jr., J. E. Peralta, 
 F. Ogliaro, M. J. Bearpark, J. J. Heyd, E. N. Brothers, K. N. Kudin, 
 V. N. Staroverov, T. A. Keith, R. Kobayashi, J. Normand, 
 K. Raghavachari, A. P. Rendell, J. C. Burant, S. S. Iyengar, 
 J. Tomasi, M. Cossi, J. M. Millam, M. Klene, C. Adamo, R. Cammi, 
 J. W. Ochterski, R. L. Martin, K. Morokuma, O. Farkas, 
 J. B. Foresman, and D. J. Fox, Gaussian, Inc., Wallingford CT, 2016.
 
 ******************************************
 Gaussian 16:  EM64M-G16RevA.03 25-Dec-2016
                19-Jul-2024 
 ******************************************
 %Mem=16GB
 %Nprocshared=10
 Will use up to   10 processors via shared memory.
 %chk=2_#_opt_pm6_MMFF.chk
 ---------
 # opt pm6
 ---------
 1/18=20,19=15,26=1,38=1/1,3;
 2/9=110,12=2,17=6,18=5,40=1/2;
 3/5=2,25=1,41=3900000,71=1/1,2,3;
 4/35=1/1;
 5/5=2,35=1,38=5/2;
 6/7=2,8=2,9=2,10=2,28=1/1;
 7//1,2,3,16;
 1/18=20,19=15,26=1/3(2);
 2/9=110/2;
 99//99;
 2/9=110/2;
 3/5=2,25=1,41=3900000,71=1,135=20/1,2,3;
 4/5=5,16=3,35=1/1;
 5/5=2,35=1,38=5/2;
 7//1,2,3,16;
 1/18=20,19=15,26=1/3(-5);
 2/9=110/2;
 6/7=2,8=2,9=2,10=2,19=2,28=1/1;
 99/9=1/99;
 -------------
 Smiles:[2H]OC
 -------------
 Symbolic Z-matrix:
 Charge =  0 Multiplicity = 1
 H                     1.55388  -0.18122  -0.119 
 O                     0.85568  -0.44294   0.50509 
 C                    -0.36617   0.06096  -0.00232 
 H                    -0.55793  -0.37024  -0.98792 
 H                    -0.31063   1.14997  -0.07374 
 H                    -1.17483  -0.21653   0.67789 
 

 GradGradGradGradGradGradGradGradGradGradGradGradGradGradGradGradGradGrad
 Berny optimization.
 Initialization pass.
                           ----------------------------
                           !    Initial Parameters    !
                           ! (Angstroms and Degrees)  !
 --------------------------                            --------------------------
 ! Name  Definition              Value          Derivative Info.                !
 --------------------------------------------------------------------------------
 ! R1    R(1,2)                  0.9723         estimate D2E/DX2                !
 ! R2    R(2,3)                  1.4157         estimate D2E/DX2                !
 ! R3    R(3,4)                  1.0928         estimate D2E/DX2                !
 ! R4    R(3,5)                  1.0928         estimate D2E/DX2                !
 ! R5    R(3,6)                  1.0925         estimate D2E/DX2                !
 ! A1    A(1,2,3)              107.0907         estimate D2E/DX2                !
 ! A2    A(2,3,4)              109.5276         estimate D2E/DX2                !
 ! A3    A(2,3,5)              109.5276         estimate D2E/DX2                !
 ! A4    A(2,3,6)              108.9817         estimate D2E/DX2                !
 ! A5    A(4,3,5)              110.0726         estimate D2E/DX2                !
 ! A6    A(4,3,6)              109.3561         estimate D2E/DX2                !
 ! A7    A(5,3,6)              109.356          estimate D2E/DX2                !
 ! D1    D(1,2,3,4)             60.4044         estimate D2E/DX2                !
 ! D2    D(1,2,3,5)            -60.4038         estimate D2E/DX2                !
 ! D3    D(1,2,3,6)           -179.9997         estimate D2E/DX2                !
 --------------------------------------------------------------------------------
 Trust Radius=3.00D-01 FncErr=1.00D-07 GrdErr=1.00D-07 EigMax=2.50D+02 EigMin=1.00D-04
 Number of steps in this run=     25 maximum allowed number of steps=    100.
 GradGradGradGradGradGradGradGradGradGradGradGradGradGradGradGradGradGrad

                          Input orientation:                          
 ---------------------------------------------------------------------
 Center     Atomic      Atomic             Coordinates (Angstroms)
 Number     Number       Type             X           Y           Z
 ---------------------------------------------------------------------
      1          1           0        1.553884   -0.181220   -0.119000
      2          8           0        0.855683   -0.442937    0.505086
      3          6           0       -0.366173    0.060961   -0.002317
      4          1           0       -0.557934   -0.370240   -0.987920
      5          1           0       -0.310627    1.149968   -0.073743
      6          1           0       -1.174834   -0.216531    0.677894
 ---------------------------------------------------------------------
                    Distance matrix (angstroms):
                    1          2          3          4          5
     1  H    0.000000
     2  O    0.972350   0.000000
     3  C    1.938785   1.415734   0.000000
     4  H    2.291403   2.057344   1.092758   0.000000
     5  H    2.291399   2.057345   1.092759   1.791065   0.000000
     6  H    2.842919   2.050395   1.092530   1.783011   1.783012
                    6
     6  H    0.000000
 Stoichiometry    CH4O
 Framework group  C1[X(CH4O)]
 Deg. of freedom    12
 Full point group                 C1      NOp   1
 Largest Abelian subgroup         C1      NOp   1
 Largest concise Abelian subgroup C1      NOp   1
                         Standard orientation:                         
 ---------------------------------------------------------------------
 Center     Atomic      Atomic             Coordinates (Angstroms)
 Number     Number       Type             X           Y           Z
 ---------------------------------------------------------------------
      1          1           0        1.125416   -0.763598    0.000001
      2          8           0        0.742692    0.130262   -0.000000
      3          6           0       -0.665056   -0.019896    0.000000
      4          1           0       -0.974314   -0.564410    0.895535
      5          1           0       -0.974313   -0.564423   -0.895529
      6          1           0       -1.127990    0.969707   -0.000007
 ---------------------------------------------------------------------
 Rotational constants (GHZ):         126.1833975          25.0916896          24.1653310
 Standard basis: VSTO-6G (5D, 7F)
 There are    12 symmetry adapted cartesian basis functions of A   symmetry.
 There are    12 symmetry adapted basis functions of A   symmetry.
    12 basis functions,    72 primitive gaussians,    12 cartesian basis functions
     7 alpha electrons        7 beta electrons
       nuclear repulsion energy        37.8521020329 Hartrees.
 Integral buffers will be    131072 words long.
 Regular integral format.
 Two-electron integral symmetry is turned off.
 Do NDO integrals.
 One-electron integrals computed using PRISM.
 NBasis=    12 RedAO= F EigKep=  0.00D+00  NBF=    12
 NBsUse=    12 1.00D-04 EigRej=  0.00D+00 NBFU=    12
 Simple Huckel Guess.
 Keep J ints in memory in canonical form, NReq=859461.
 Overlap will be assumed to be unity.
 Requested convergence on RMS density matrix=1.00D-08 within 128 cycles.
 Requested convergence on MAX density matrix=1.00D-06.
 Requested convergence on             energy=1.00D-06.
 No special actions if energy rises.
 SCF Done:  E(RPM6) = -0.756454125754E-01 A.U. after   13 cycles
            NFock= 12  Conv=0.55D-08     -V/T= 0.9973

 **********************************************************************

            Population analysis using the SCF density.

 **********************************************************************

 Orbital symmetries:
       Occupied  (A) (A) (A) (A) (A) (A) (A)
       Virtual   (A) (A) (A) (A) (A)
 The electronic state is 1-A.
 Alpha  occ. eigenvalues --   -1.10829  -0.90719  -0.66277  -0.56900  -0.55723
 Alpha  occ. eigenvalues --   -0.45756  -0.38598
 Alpha virt. eigenvalues --    0.10181   0.18574   0.19314   0.20659   0.21852
          Condensed to atoms (all electrons):
               1          2          3          4          5          6
     1  H    0.698229   0.000000   0.000000   0.000000   0.000000   0.000000
     2  O    0.000000   6.516523   0.000000   0.000000   0.000000   0.000000
     3  C    0.000000   0.000000   4.183165   0.000000   0.000000   0.000000
     4  H    0.000000   0.000000   0.000000   0.878965   0.000000   0.000000
     5  H    0.000000   0.000000   0.000000   0.000000   0.878965   0.000000
     6  H    0.000000   0.000000   0.000000   0.000000   0.000000   0.844152
 Mulliken charges:
               1
     1  H    0.301771
     2  O   -0.516523
     3  C   -0.183165
     4  H    0.121035
     5  H    0.121035
     6  H    0.155848
 Sum of Mulliken charges =   0.00000
 Mulliken charges with hydrogens summed into heavy atoms:
               1
     2  O   -0.214752
     3  C    0.214752
 Charge=              0.0000 electrons
 Dipole moment (field-independent basis, Debye):
    X=             -1.3385    Y=             -1.6330    Z=              0.0000  Tot=              2.1115
 N-N= 3.785210203291D+01 E-N=-3.802046258691D+01  KE=-2.853896803034D+01
 Calling FoFJK, ICntrl=      2127 FMM=F ISym2X=0 I1Cent= 0 IOpClX= 0 NMat=1 NMatS=1 NMatT=0.
 ***** Axes restored to original set *****
 -------------------------------------------------------------------
 Center     Atomic                   Forces (Hartrees/Bohr)
 Number     Number              X              Y              Z
 -------------------------------------------------------------------
      1        1           0.007517243   -0.001366321    0.000238488
      2        8           0.004967179   -0.005253411    0.007392291
      3        6          -0.012333495    0.007902321   -0.009803274
      4        1          -0.002208795   -0.001320667   -0.002602631
      5        1          -0.001448238    0.003354242    0.000209098
      6        1           0.003506105   -0.003316163    0.004566028
 -------------------------------------------------------------------
 Cartesian Forces:  Max     0.012333495 RMS     0.005512323

 GradGradGradGradGradGradGradGradGradGradGradGradGradGradGradGradGradGrad
 Berny optimization.
 FormGI is forming the generalized inverse of G from B-inverse, IUseBI=4.
 Internal  Forces:  Max     0.015865773 RMS     0.006367455
 Search for a local minimum.
 Step number   1 out of a maximum of   25
 All quantities printed in internal units (Hartrees-Bohrs-Radians)
 Mixed Optimization -- RFO/linear search
 Second derivative matrix not updated -- first step.
 The second derivative matrix:
                          R1        R2        R3        R4        R5
           R1           0.52900
           R2           0.00000   0.43109
           R3           0.00000   0.00000   0.34496
           R4           0.00000   0.00000   0.00000   0.34496
           R5           0.00000   0.00000   0.00000   0.00000   0.34522
           A1           0.00000   0.00000   0.00000   0.00000   0.00000
           A2           0.00000   0.00000   0.00000   0.00000   0.00000
           A3           0.00000   0.00000   0.00000   0.00000   0.00000
           A4           0.00000   0.00000   0.00000   0.00000   0.00000
           A5           0.00000   0.00000   0.00000   0.00000   0.00000
           A6           0.00000   0.00000   0.00000   0.00000   0.00000
           A7           0.00000   0.00000   0.00000   0.00000   0.00000
           D1           0.00000   0.00000   0.00000   0.00000   0.00000
           D2           0.00000   0.00000   0.00000   0.00000   0.00000
           D3           0.00000   0.00000   0.00000   0.00000   0.00000
                          A1        A2        A3        A4        A5
           A1           0.16000
           A2           0.00000   0.16000
           A3           0.00000   0.00000   0.16000
           A4           0.00000   0.00000   0.00000   0.16000
           A5           0.00000   0.00000   0.00000   0.00000   0.16000
           A6           0.00000   0.00000   0.00000   0.00000   0.00000
           A7           0.00000   0.00000   0.00000   0.00000   0.00000
           D1           0.00000   0.00000   0.00000   0.00000   0.00000
           D2           0.00000   0.00000   0.00000   0.00000   0.00000
           D3           0.00000   0.00000   0.00000   0.00000   0.00000
                          A6        A7        D1        D2        D3
           A6           0.16000
           A7           0.00000   0.16000
           D1           0.00000   0.00000   0.01484
           D2           0.00000   0.00000   0.00000   0.01484
           D3           0.00000   0.00000   0.00000   0.00000   0.01484
 ITU=  0
     Eigenvalues ---    0.01484   0.10393   0.10484   0.16000   0.16000
     Eigenvalues ---    0.16000   0.16000   0.34496   0.34496   0.34522
     Eigenvalues ---    0.43109   0.52900
 RFO step:  Lambda=-2.72702216D-03 EMin= 1.48364821D-02
 Linear search not attempted -- first point.
 Iteration  1 RMS(Cart)=  0.05480633 RMS(Int)=  0.00194761
 Iteration  2 RMS(Cart)=  0.00185816 RMS(Int)=  0.00036875
 Iteration  3 RMS(Cart)=  0.00000127 RMS(Int)=  0.00036875
 Iteration  4 RMS(Cart)=  0.00000000 RMS(Int)=  0.00036875
 Variable       Old X    -DE/DX   Delta X   Delta X   Delta X     New X
                                 (Linear)    (Quad)   (Total)
    R1        1.83747   0.00488   0.00000   0.00917   0.00917   1.84665
    R2        2.67535   0.01587   0.00000   0.03657   0.03657   2.71192
    R3        2.06501   0.00326   0.00000   0.00937   0.00937   2.07438
    R4        2.06502   0.00326   0.00000   0.00936   0.00936   2.07438
    R5        2.06458   0.00109   0.00000   0.00313   0.00313   2.06771
    A1        1.86909   0.01082   0.00000   0.06647   0.06647   1.93555
    A2        1.91162   0.00391   0.00000   0.02704   0.02653   1.93815
    A3        1.91162   0.00391   0.00000   0.02705   0.02653   1.93815
    A4        1.90209  -0.01188   0.00000  -0.07890  -0.07897   1.82312
    A5        1.92113   0.00057   0.00000   0.01518   0.01432   1.93545
    A6        1.90862   0.00167   0.00000   0.00429   0.00422   1.91284
    A7        1.90862   0.00167   0.00000   0.00429   0.00422   1.91284
    D1        1.05426   0.00280   0.00000   0.02623   0.02685   1.08110
    D2       -1.05425  -0.00280   0.00000  -0.02623  -0.02685  -1.08109
    D3       -3.14159  -0.00000   0.00000  -0.00000  -0.00000  -3.14159
         Item               Value     Threshold  Converged?
 Maximum Force            0.015866     0.000450     NO 
 RMS     Force            0.006367     0.000300     NO 
 Maximum Displacement     0.098681     0.001800     NO 
 RMS     Displacement     0.055106     0.001200     NO 
 Predicted change in Energy=-1.389145D-03
 GradGradGradGradGradGradGradGradGradGradGradGradGradGradGradGradGradGrad

                          Input orientation:                          
 ---------------------------------------------------------------------
 Center     Atomic      Atomic             Coordinates (Angstroms)
 Number     Number       Type             X           Y           Z
 ---------------------------------------------------------------------
      1          1           0        1.606104   -0.213903   -0.078778
      2          8           0        0.853779   -0.440839    0.502113
      3          6           0       -0.375685    0.077141   -0.026649
      4          1           0       -0.598800   -0.361718   -1.007770
      5          1           0       -0.349135    1.172988   -0.084874
      6          1           0       -1.136265   -0.233669    0.695959
 ---------------------------------------------------------------------
                    Distance matrix (angstroms):
                    1          2          3          4          5
     1  H    0.000000
     2  O    0.977203   0.000000
     3  C    2.003724   1.435087   0.000000
     4  H    2.397181   2.096662   1.097714   0.000000
     5  H    2.397178   2.096663   1.097714   1.808146   0.000000
     6  H    2.849771   2.010167   1.094188   1.791077   1.791077
                    6
     6  H    0.000000
 Stoichiometry    CH4O
 Framework group  C1[X(CH4O)]
 Deg. of freedom    12
 Full point group                 C1      NOp   1
 Largest Abelian subgroup         C1      NOp   1
 Largest concise Abelian subgroup C1      NOp   1
                         Standard orientation:                         
 ---------------------------------------------------------------------
 Center     Atomic      Atomic             Coordinates (Angstroms)
 Number     Number       Type             X           Y           Z
 ---------------------------------------------------------------------
      1          1           0        1.189322   -0.748851    0.000000
      2          8           0        0.748439    0.123243   -0.000000
      3          6           0       -0.678996   -0.024765    0.000000
      4          1           0       -1.021437   -0.544723    0.904075
      5          1           0       -1.021437   -0.544732   -0.904071
      6          1           0       -1.059986    1.000951   -0.000005
 ---------------------------------------------------------------------
 Rotational constants (GHZ):         125.9496171          24.3847844          23.5687578
 Standard basis: VSTO-6G (5D, 7F)
 There are    12 symmetry adapted cartesian basis functions of A   symmetry.
 There are    12 symmetry adapted basis functions of A   symmetry.
    12 basis functions,    72 primitive gaussians,    12 cartesian basis functions
     7 alpha electrons        7 beta electrons
       nuclear repulsion energy        37.6935828022 Hartrees.
 Integral buffers will be    131072 words long.
 Regular integral format.
 Two-electron integral symmetry is turned off.
 Do NDO integrals.
 One-electron integrals computed using PRISM.
 NBasis=    12 RedAO= F EigKep=  0.00D+00  NBF=    12
 NBsUse=    12 1.00D-04 EigRej=  0.00D+00 NBFU=    12
 Initial guess from the checkpoint file:  "2_#_opt_pm6_MMFF.chk"
 B after Tr=    -0.000000    0.000000    0.000000
         Rot=    0.999984   -0.000001    0.000000    0.005629 Ang=  -0.65 deg.
 Keep J ints in memory in canonical form, NReq=859461.
 Overlap will be assumed to be unity.
 Requested convergence on RMS density matrix=1.00D-08 within 128 cycles.
 Requested convergence on MAX density matrix=1.00D-06.
 Requested convergence on             energy=1.00D-06.
 No special actions if energy rises.
 SCF Done:  E(RPM6) = -0.768036398557E-01 A.U. after    9 cycles
            NFock=  9  Conv=0.91D-08     -V/T= 0.9973
 Calling FoFJK, ICntrl=      2127 FMM=F ISym2X=0 I1Cent= 0 IOpClX= 0 NMat=1 NMatS=1 NMatT=0.
 ***** Axes restored to original set *****
 -------------------------------------------------------------------
 Center     Atomic                   Forces (Hartrees/Bohr)
 Number     Number              X              Y              Z
 -------------------------------------------------------------------
      1        1          -0.002062885    0.000878477   -0.000902810
      2        8          -0.002629630    0.000073879    0.000588510
      3        6           0.000962564    0.001889780   -0.003402498
      4        1           0.001886827    0.000190492    0.001301958
      5        1           0.001586696   -0.001654532    0.000192582
      6        1           0.000256428   -0.001378097    0.002222258
 -------------------------------------------------------------------
 Cartesian Forces:  Max     0.003402498 RMS     0.001610225

 GradGradGradGradGradGradGradGradGradGradGradGradGradGradGradGradGradGrad
 Berny optimization.
 Using GEDIIS/GDIIS optimizer.
 FormGI is forming the generalized inverse of G from B-inverse, IUseBI=4.
 Internal  Forces:  Max     0.004479708 RMS     0.002107248
 Search for a local minimum.
 Step number   2 out of a maximum of   25
 All quantities printed in internal units (Hartrees-Bohrs-Radians)
 Mixed Optimization -- RFO/linear search
 Update second derivatives using D2CorX and points    1    2
 DE= -1.16D-03 DEPred=-1.39D-03 R= 8.34D-01
 TightC=F SS=  1.41D+00  RLast= 1.24D-01 DXNew= 5.0454D-01 3.7169D-01
 Trust test= 8.34D-01 RLast= 1.24D-01 DXMaxT set to 3.72D-01
 The second derivative matrix:
                          R1        R2        R3        R4        R5
           R1           0.53079
           R2           0.00906   0.47201
           R3           0.00317   0.01306   0.34876
           R4           0.00317   0.01306   0.00380   0.34875
           R5          -0.00306  -0.01026  -0.00224  -0.00224   0.34489
           A1           0.00847   0.03597   0.01082   0.01082  -0.00716
           A2           0.00254   0.01138   0.00360   0.00360  -0.00277
           A3           0.00254   0.01138   0.00360   0.00360  -0.00277
           A4           0.00503   0.01091   0.00002   0.00001   0.00695
           A5          -0.00555  -0.01847  -0.00396  -0.00396  -0.00078
           A6          -0.00187  -0.00629  -0.00137  -0.00137  -0.00021
           A7          -0.00187  -0.00629  -0.00137  -0.00137  -0.00021
           D1           0.00503   0.01809   0.00442   0.00442  -0.00075
           D2          -0.00503  -0.01809  -0.00442  -0.00442   0.00075
           D3           0.00000   0.00000   0.00000   0.00000   0.00000
                          A1        A2        A3        A4        A5
           A1           0.19043
           A2           0.00995   0.16316
           A3           0.00995   0.00316   0.16316
           A4           0.00338   0.00277   0.00277   0.13051
           A5          -0.01277  -0.00499  -0.00499   0.01318   0.15822
           A6          -0.00439  -0.00170  -0.00170   0.00429  -0.00049
           A7          -0.00439  -0.00170  -0.00170   0.00429  -0.00049
           D1           0.01348   0.00493   0.00493  -0.00783  -0.00110
           D2          -0.01348  -0.00493  -0.00493   0.00783   0.00110
           D3           0.00000   0.00000   0.00000  -0.00000   0.00000
                          A6        A7        D1        D2        D3
           A6           0.15987
           A7          -0.00013   0.15987
           D1          -0.00045  -0.00045   0.01790
           D2           0.00045   0.00045  -0.00306   0.01790
           D3           0.00000   0.00000   0.00000  -0.00000   0.01484
 ITU=  1  0
 Use linear search instead of GDIIS.
     Eigenvalues ---    0.01484   0.10041   0.10864   0.13405   0.16000
     Eigenvalues ---    0.16000   0.19516   0.34384   0.34496   0.35108
     Eigenvalues ---    0.48147   0.53394
 RFO step:  Lambda=-1.97713728D-04 EMin= 1.48364821D-02
 Quartic linear search produced a step of -0.12293.
 Iteration  1 RMS(Cart)=  0.01278607 RMS(Int)=  0.00009092
 Iteration  2 RMS(Cart)=  0.00007901 RMS(Int)=  0.00004966
 Iteration  3 RMS(Cart)=  0.00000000 RMS(Int)=  0.00004966
 Variable       Old X    -DE/DX   Delta X   Delta X   Delta X     New X
                                 (Linear)    (Quad)   (Total)
    R1        1.84665  -0.00085  -0.00113   0.00038  -0.00074   1.84590
    R2        2.71192  -0.00448  -0.00450  -0.00198  -0.00648   2.70544
    R3        2.07438  -0.00162  -0.00115  -0.00230  -0.00345   2.07092
    R4        2.07438  -0.00162  -0.00115  -0.00230  -0.00346   2.07092
    R5        2.06771   0.00168  -0.00039   0.00488   0.00449   2.07221
    A1        1.93555  -0.00418  -0.00817  -0.01010  -0.01827   1.91728
    A2        1.93815  -0.00162  -0.00326  -0.00410  -0.00735   1.93080
    A3        1.93815  -0.00162  -0.00326  -0.00410  -0.00735   1.93080
    A4        1.82312  -0.00222   0.00971  -0.02676  -0.01711   1.80601
    A5        1.93545   0.00133  -0.00176   0.00877   0.00707   1.94252
    A6        1.91284   0.00202  -0.00052   0.01242   0.01184   1.92468
    A7        1.91284   0.00202  -0.00052   0.01242   0.01184   1.92468
    D1        1.08110  -0.00031  -0.00330   0.00271  -0.00070   1.08041
    D2       -1.08109   0.00031   0.00330  -0.00271   0.00069  -1.08040
    D3       -3.14159  -0.00000   0.00000  -0.00000  -0.00000  -3.14159
         Item               Value     Threshold  Converged?
 Maximum Force            0.004480     0.000450     NO 
 RMS     Force            0.002107     0.000300     NO 
 Maximum Displacement     0.030697     0.001800     NO 
 RMS     Displacement     0.012833     0.001200     NO 
 Predicted change in Energy=-1.219832D-04
 GradGradGradGradGradGradGradGradGradGradGradGradGradGradGradGradGradGrad

                          Input orientation:                          
 ---------------------------------------------------------------------
 Center     Atomic      Atomic             Coordinates (Angstroms)
 Number     Number       Type             X           Y           Z
 ---------------------------------------------------------------------
      1          1           0        1.589860   -0.208600   -0.083202
      2          8           0        0.845459   -0.441193    0.504953
      3          6           0       -0.376890    0.078772   -0.029035
      4          1           0       -0.588965   -0.363322   -1.009108
      5          1           0       -0.339111    1.172549   -0.085511
      6          1           0       -1.130354   -0.238204    0.701903
 ---------------------------------------------------------------------
                    Distance matrix (angstroms):
                    1          2          3          4          5
     1  H    0.000000
     2  O    0.976810   0.000000
     3  C    1.988371   1.431658   0.000000
     4  H    2.372450   2.087108   1.095886   0.000000
     5  H    2.372447   2.087108   1.095886   1.809519   0.000000
     6  H    2.831401   1.995954   1.096564   1.798975   1.798975
                    6
     6  H    0.000000
 Stoichiometry    CH4O
 Framework group  C1[X(CH4O)]
 Deg. of freedom    12
 Full point group                 C1      NOp   1
 Largest Abelian subgroup         C1      NOp   1
 Largest concise Abelian subgroup C1      NOp   1
                         Standard orientation:                         
 ---------------------------------------------------------------------
 Center     Atomic      Atomic             Coordinates (Angstroms)
 Number     Number       Type             X           Y           Z
 ---------------------------------------------------------------------
      1          1           0        1.170530   -0.756538   -0.000000
      2          8           0        0.745773    0.123087    0.000000
      3          6           0       -0.678242   -0.024650    0.000000
      4          1           0       -1.012393   -0.544953    0.904762
      5          1           0       -1.012393   -0.544960   -0.904758
      6          1           0       -1.042475    1.009655   -0.000004
 ---------------------------------------------------------------------
 Rotational constants (GHZ):         124.9686013          24.6106981          23.7501312
 Standard basis: VSTO-6G (5D, 7F)
 There are    12 symmetry adapted cartesian basis functions of A   symmetry.
 There are    12 symmetry adapted basis functions of A   symmetry.
    12 basis functions,    72 primitive gaussians,    12 cartesian basis functions
     7 alpha electrons        7 beta electrons
       nuclear repulsion energy        37.7344099406 Hartrees.
 Integral buffers will be    131072 words long.
 Regular integral format.
 Two-electron integral symmetry is turned off.
 Do NDO integrals.
 One-electron integrals computed using PRISM.
 NBasis=    12 RedAO= F EigKep=  0.00D+00  NBF=    12
 NBsUse=    12 1.00D-04 EigRej=  0.00D+00 NBFU=    12
 Initial guess from the checkpoint file:  "2_#_opt_pm6_MMFF.chk"
 B after Tr=     0.000000   -0.000000    0.000000
         Rot=    0.999999   -0.000000   -0.000000    0.001359 Ang=  -0.16 deg.
 Keep J ints in memory in canonical form, NReq=859461.
 Overlap will be assumed to be unity.
 Requested convergence on RMS density matrix=1.00D-08 within 128 cycles.
 Requested convergence on MAX density matrix=1.00D-06.
 Requested convergence on             energy=1.00D-06.
 No special actions if energy rises.
 SCF Done:  E(RPM6) = -0.769221931437E-01 A.U. after    8 cycles
            NFock=  8  Conv=0.53D-08     -V/T= 0.9973
 Calling FoFJK, ICntrl=      2127 FMM=F ISym2X=0 I1Cent= 0 IOpClX= 0 NMat=1 NMatS=1 NMatT=0.
 ***** Axes restored to original set *****
 -------------------------------------------------------------------
 Center     Atomic                   Forces (Hartrees/Bohr)
 Number     Number              X              Y              Z
 -------------------------------------------------------------------
      1        1           0.000414447   -0.000020596   -0.000077885
      2        8           0.001055978   -0.000228711    0.000094677
      3        6          -0.001330706    0.000844921   -0.001044916
      4        1           0.000447017    0.000295166    0.000561772
      5        1           0.000281607   -0.000721699   -0.000049690
      6        1          -0.000868343   -0.000169082    0.000516042
 -------------------------------------------------------------------
 Cartesian Forces:  Max     0.001330706 RMS     0.000631805

 GradGradGradGradGradGradGradGradGradGradGradGradGradGradGradGradGradGrad
 Berny optimization.
 Using GEDIIS/GDIIS optimizer.
 FormGI is forming the generalized inverse of G from B-inverse, IUseBI=4.
 Internal  Forces:  Max     0.001352257 RMS     0.000587070
 Search for a local minimum.
 Step number   3 out of a maximum of   25
 All quantities printed in internal units (Hartrees-Bohrs-Radians)
 Mixed Optimization -- En-DIIS/RFO-DIIS
 Update second derivatives using D2CorX and points    1    2    3
 DE= -1.19D-04 DEPred=-1.22D-04 R= 9.72D-01
 TightC=F SS=  1.41D+00  RLast= 3.39D-02 DXNew= 6.2511D-01 1.0185D-01
 Trust test= 9.72D-01 RLast= 3.39D-02 DXMaxT set to 3.72D-01
 The second derivative matrix:
                          R1        R2        R3        R4        R5
           R1           0.53238
           R2           0.01722   0.51066
           R3           0.00266   0.00636   0.34273
           R4           0.00266   0.00637  -0.00223   0.34273
           R5          -0.00240  -0.00115   0.00580   0.00580   0.33405
           A1           0.01391   0.05817   0.00122   0.00122   0.00584
           A2           0.00271   0.00877  -0.00171  -0.00171   0.00432
           A3           0.00271   0.00877  -0.00171  -0.00171   0.00432
           A4           0.01213   0.04121  -0.00847  -0.00848   0.01912
           A5          -0.00739  -0.02482   0.00055   0.00055  -0.00699
           A6          -0.00463  -0.01571   0.00553   0.00553  -0.00972
           A7          -0.00463  -0.01571   0.00553   0.00553  -0.00972
           D1           0.00397   0.01184   0.00312   0.00312   0.00088
           D2          -0.00397  -0.01184  -0.00312  -0.00312  -0.00088
           D3           0.00000   0.00000  -0.00000  -0.00000   0.00000
                          A1        A2        A3        A4        A5
           A1           0.19854
           A2           0.00384   0.15871
           A3           0.00384  -0.00129   0.15871
           A4           0.01779  -0.00186  -0.00186   0.14938
           A5          -0.01360  -0.00183  -0.00183   0.01051   0.15748
           A6          -0.00544   0.00315   0.00315   0.00052  -0.00172
           A7          -0.00544   0.00315   0.00315   0.00052  -0.00172
           D1           0.00803   0.00343   0.00343  -0.01338   0.00096
           D2          -0.00803  -0.00343  -0.00343   0.01338  -0.00096
           D3           0.00000  -0.00000  -0.00000  -0.00000   0.00000
                          A6        A7        D1        D2        D3
           A6           0.15785
           A7          -0.00215   0.15785
           D1           0.00267   0.00267   0.01807
           D2          -0.00267  -0.00267  -0.00323   0.01807
           D3           0.00000   0.00000  -0.00000   0.00000   0.01484
 ITU=  1  1  0
 Use linear search instead of GDIIS.
     Eigenvalues ---    0.01484   0.10445   0.10975   0.13007   0.16000
     Eigenvalues ---    0.16551   0.18955   0.33356   0.34496   0.34586
     Eigenvalues ---    0.50968   0.55287
 RFO step:  Lambda=-1.75928045D-05 EMin= 1.48364821D-02
 Quartic linear search produced a step of -0.03281.
 Iteration  1 RMS(Cart)=  0.00279232 RMS(Int)=  0.00000724
 Iteration  2 RMS(Cart)=  0.00000490 RMS(Int)=  0.00000518
 Iteration  3 RMS(Cart)=  0.00000000 RMS(Int)=  0.00000518
 Variable       Old X    -DE/DX   Delta X   Delta X   Delta X     New X
                                 (Linear)    (Quad)   (Total)
    R1        1.84590   0.00036   0.00002   0.00061   0.00063   1.84653
    R2        2.70544   0.00135   0.00021   0.00245   0.00267   2.70811
    R3        2.07092  -0.00071   0.00011  -0.00229  -0.00218   2.06874
    R4        2.07092  -0.00071   0.00011  -0.00229  -0.00218   2.06874
    R5        2.07221   0.00099  -0.00015   0.00324   0.00310   2.07530
    A1        1.91728   0.00041   0.00060   0.00078   0.00138   1.91866
    A2        1.93080  -0.00045   0.00024  -0.00375  -0.00351   1.92729
    A3        1.93080  -0.00045   0.00024  -0.00375  -0.00351   1.92729
    A4        1.80601   0.00066   0.00056   0.00236   0.00292   1.80893
    A5        1.94252   0.00003  -0.00023  -0.00016  -0.00040   1.94212
    A6        1.92468   0.00012  -0.00039   0.00274   0.00236   1.92704
    A7        1.92468   0.00012  -0.00039   0.00274   0.00236   1.92704
    D1        1.08041  -0.00030   0.00002  -0.00274  -0.00271   1.07770
    D2       -1.08040   0.00030  -0.00002   0.00274   0.00271  -1.07769
    D3       -3.14159  -0.00000   0.00000  -0.00000  -0.00000  -3.14159
         Item               Value     Threshold  Converged?
 Maximum Force            0.001352     0.000450     NO 
 RMS     Force            0.000587     0.000300     NO 
 Maximum Displacement     0.007052     0.001800     NO 
 RMS     Displacement     0.002794     0.001200     NO 
 Predicted change in Energy=-8.919193D-06
 GradGradGradGradGradGradGradGradGradGradGradGradGradGradGradGradGradGrad

                          Input orientation:                          
 ---------------------------------------------------------------------
 Center     Atomic      Atomic             Coordinates (Angstroms)
 Number     Number       Type             X           Y           Z
 ---------------------------------------------------------------------
      1          1           0        1.590646   -0.207954   -0.084489
      2          8           0        0.846231   -0.440805    0.504100
      3          6           0       -0.378592    0.078698   -0.028452
      4          1           0       -0.586878   -0.362896   -1.008272
      5          1           0       -0.337321    1.171148   -0.085774
      6          1           0       -1.134086   -0.238190    0.702888
 ---------------------------------------------------------------------
                    Distance matrix (angstroms):
                    1          2          3          4          5
     1  H    0.000000
     2  O    0.977144   0.000000
     3  C    1.990781   1.433069   0.000000
     4  H    2.370441   2.084980   1.094731   0.000000
     5  H    2.370439   2.084980   1.094731   1.807367   0.000000
     6  H    2.836378   2.000556   1.098202   1.800850   1.800850
                    6
     6  H    0.000000
 Stoichiometry    CH4O
 Framework group  C1[X(CH4O)]
 Deg. of freedom    12
 Full point group                 C1      NOp   1
 Largest Abelian subgroup         C1      NOp   1
 Largest concise Abelian subgroup C1      NOp   1
                         Standard orientation:                         
 ---------------------------------------------------------------------
 Center     Atomic      Atomic             Coordinates (Angstroms)
 Number     Number       Type             X           Y           Z
 ---------------------------------------------------------------------
      1          1           0        1.172541   -0.755518   -0.000000
      2          8           0        0.746076    0.123652    0.000000
      3          6           0       -0.679283   -0.024796    0.000000
      4          1           0       -1.008978   -0.547377    0.903685
      5          1           0       -1.008977   -0.547383   -0.903682
      6          1           0       -1.047495    1.009839   -0.000004
 ---------------------------------------------------------------------
 Rotational constants (GHZ):         124.9067664          24.5837739          23.7140932
 Standard basis: VSTO-6G (5D, 7F)
 There are    12 symmetry adapted cartesian basis functions of A   symmetry.
 There are    12 symmetry adapted basis functions of A   symmetry.
    12 basis functions,    72 primitive gaussians,    12 cartesian basis functions
     7 alpha electrons        7 beta electrons
       nuclear repulsion energy        37.7280496698 Hartrees.
 Integral buffers will be    131072 words long.
 Regular integral format.
 Two-electron integral symmetry is turned off.
 Do NDO integrals.
 One-electron integrals computed using PRISM.
 NBasis=    12 RedAO= F EigKep=  0.00D+00  NBF=    12
 NBsUse=    12 1.00D-04 EigRej=  0.00D+00 NBFU=    12
 Initial guess from the checkpoint file:  "2_#_opt_pm6_MMFF.chk"
 B after Tr=    -0.000000    0.000000   -0.000000
         Rot=    1.000000   -0.000000   -0.000000   -0.000703 Ang=  -0.08 deg.
 Keep J ints in memory in canonical form, NReq=859461.
 Overlap will be assumed to be unity.
 Requested convergence on RMS density matrix=1.00D-08 within 128 cycles.
 Requested convergence on MAX density matrix=1.00D-06.
 Requested convergence on             energy=1.00D-06.
 No special actions if energy rises.
 SCF Done:  E(RPM6) = -0.769315919326E-01 A.U. after    8 cycles
            NFock=  8  Conv=0.49D-08     -V/T= 0.9973
 Calling FoFJK, ICntrl=      2127 FMM=F ISym2X=0 I1Cent= 0 IOpClX= 0 NMat=1 NMatS=1 NMatT=0.
 ***** Axes restored to original set *****
 -------------------------------------------------------------------
 Center     Atomic                   Forces (Hartrees/Bohr)
 Number     Number              X              Y              Z
 -------------------------------------------------------------------
      1        1          -0.000009490    0.000043390   -0.000069608
      2        8           0.000374353   -0.000246600    0.000308836
      3        6          -0.000393755    0.000283685   -0.000365208
      4        1           0.000001224    0.000043530    0.000134788
      5        1          -0.000028018   -0.000136270    0.000026672
      6        1           0.000055686    0.000012264   -0.000035480
 -------------------------------------------------------------------
 Cartesian Forces:  Max     0.000393755 RMS     0.000199539

 GradGradGradGradGradGradGradGradGradGradGradGradGradGradGradGradGradGrad
 Berny optimization.
 Using GEDIIS/GDIIS optimizer.
 FormGI is forming the generalized inverse of G from B-inverse, IUseBI=4.
 Internal  Forces:  Max     0.000474410 RMS     0.000139544
 Search for a local minimum.
 Step number   4 out of a maximum of   25
 All quantities printed in internal units (Hartrees-Bohrs-Radians)
 Mixed Optimization -- En-DIIS/RFO-DIIS
 Swapping is turned off.
 Update second derivatives using D2CorX and points    1    2    3    4
 DE= -9.40D-06 DEPred=-8.92D-06 R= 1.05D+00
 TightC=F SS=  1.41D+00  RLast= 9.36D-03 DXNew= 6.2511D-01 2.8084D-02
 Trust test= 1.05D+00 RLast= 9.36D-03 DXMaxT set to 3.72D-01
 The second derivative matrix:
                          R1        R2        R3        R4        R5
           R1           0.53099
           R2           0.00734   0.46550
           R3           0.00611   0.03020   0.33302
           R4           0.00611   0.03020  -0.01194   0.33302
           R5          -0.00318  -0.02572   0.00955   0.00955   0.34650
           A1           0.01544   0.05755  -0.00279  -0.00279   0.01594
           A2           0.00400   0.02379  -0.00620  -0.00620   0.00188
           A3           0.00400   0.02379  -0.00620  -0.00620   0.00188
           A4           0.01084   0.02813  -0.00354  -0.00354   0.01955
           A5          -0.00483  -0.01820  -0.00602  -0.00602   0.00376
           A6          -0.00656  -0.02785   0.01103   0.01103  -0.01283
           A7          -0.00656  -0.02785   0.01103   0.01103  -0.01283
           D1           0.00021   0.00501   0.01234   0.01234  -0.01674
           D2          -0.00021  -0.00500  -0.01234  -0.01234   0.01675
           D3           0.00000   0.00000  -0.00000  -0.00000   0.00000
                          A1        A2        A3        A4        A5
           A1           0.20186
           A2          -0.00074   0.15780
           A3          -0.00074  -0.00220   0.15780
           A4           0.02176  -0.00000  -0.00000   0.14664
           A5          -0.01137  -0.00737  -0.00737   0.01550   0.15801
           A6          -0.00373   0.00599   0.00599  -0.00268   0.00124
           A7          -0.00373   0.00599   0.00599  -0.00268   0.00124
           D1           0.00322   0.01189   0.01189  -0.02074  -0.00141
           D2          -0.00322  -0.01189  -0.01189   0.02074   0.00141
           D3          -0.00000  -0.00000  -0.00000   0.00000  -0.00000
                          A6        A7        D1        D2        D3
           A6           0.15507
           A7          -0.00493   0.15506
           D1          -0.00115  -0.00115   0.02419
           D2           0.00115   0.00115  -0.00936   0.02420
           D3           0.00000   0.00000   0.00000  -0.00000   0.01484
 ITU=  1  1  1  0
     Eigenvalues ---    0.01484   0.10852   0.10969   0.12615   0.16000
     Eigenvalues ---    0.16672   0.18970   0.31522   0.34496   0.35615
     Eigenvalues ---    0.49373   0.53743
 En-DIIS/RFO-DIIS/Sim-DIIS IScMMF=       -3 using points:     4    3
 RFO step:  Lambda=-9.19611833D-07.
 DidBck=F Rises=F RFO-DIIS coefs:    1.03636   -0.03636
 Iteration  1 RMS(Cart)=  0.00031452 RMS(Int)=  0.00000024
 Iteration  2 RMS(Cart)=  0.00000017 RMS(Int)=  0.00000019
 Variable       Old X    -DE/DX   Delta X   Delta X   Delta X     New X
                                 (Linear)    (Quad)   (Total)
    R1        1.84653   0.00005   0.00002   0.00010   0.00013   1.84666
    R2        2.70811   0.00047   0.00010   0.00117   0.00127   2.70938
    R3        2.06874  -0.00014  -0.00008  -0.00051  -0.00058   2.06816
    R4        2.06874  -0.00014  -0.00008  -0.00051  -0.00058   2.06816
    R5        2.07530  -0.00007   0.00011  -0.00008   0.00003   2.07533
    A1        1.91866  -0.00013   0.00005  -0.00100  -0.00095   1.91771
    A2        1.92729   0.00003  -0.00013   0.00009  -0.00004   1.92725
    A3        1.92729   0.00003  -0.00013   0.00009  -0.00004   1.92725
    A4        1.80893  -0.00005   0.00011  -0.00062  -0.00051   1.80842
    A5        1.94212   0.00001  -0.00001   0.00031   0.00029   1.94241
    A6        1.92704  -0.00002   0.00009   0.00004   0.00012   1.92716
    A7        1.92704  -0.00002   0.00009   0.00004   0.00012   1.92716
    D1        1.07770   0.00003  -0.00010   0.00026   0.00016   1.07786
    D2       -1.07769  -0.00003   0.00010  -0.00026  -0.00016  -1.07785
    D3       -3.14159  -0.00000  -0.00000  -0.00000  -0.00000  -3.14159
         Item               Value     Threshold  Converged?
 Maximum Force            0.000474     0.000450     NO 
 RMS     Force            0.000140     0.000300     YES
 Maximum Displacement     0.000616     0.001800     YES
 RMS     Displacement     0.000315     0.001200     YES
 Predicted change in Energy=-4.598054D-07
 GradGradGradGradGradGradGradGradGradGradGradGradGradGradGradGradGradGrad

                          Input orientation:                          
 ---------------------------------------------------------------------
 Center     Atomic      Atomic             Coordinates (Angstroms)
 Number     Number       Type             X           Y           Z
 ---------------------------------------------------------------------
      1          1           0        1.590509   -0.207853   -0.084621
      2          8           0        0.846475   -0.441041    0.504426
      3          6           0       -0.378738    0.078848   -0.028660
      4          1           0       -0.586857   -0.362774   -1.008159
      5          1           0       -0.337345    1.170991   -0.085829
      6          1           0       -1.134045   -0.238170    0.702843
 ---------------------------------------------------------------------
                    Distance matrix (angstroms):
                    1          2          3          4          5
     1  H    0.000000
     2  O    0.977210   0.000000
     3  C    1.990795   1.433741   0.000000
     4  H    2.370199   2.085301   1.094422   0.000000
     5  H    2.370198   2.085301   1.094422   1.807037   0.000000
     6  H    2.836233   2.000747   1.098220   1.800686   1.800686
                    6
     6  H    0.000000
 Stoichiometry    CH4O
 Framework group  C1[X(CH4O)]
 Deg. of freedom    12
 Full point group                 C1      NOp   1
 Largest Abelian subgroup         C1      NOp   1
 Largest concise Abelian subgroup C1      NOp   1
                         Standard orientation:                         
 ---------------------------------------------------------------------
 Center     Atomic      Atomic             Coordinates (Angstroms)
 Number     Number       Type             X           Y           Z
 ---------------------------------------------------------------------
      1          1           0        1.172043   -0.756006   -0.000000
      2          8           0        0.746417    0.123643    0.000000
      3          6           0       -0.679616   -0.024825    0.000000
      4          1           0       -1.009209   -0.547107    0.903520
      5          1           0       -1.009209   -0.547113   -0.903517
      6          1           0       -1.047270    1.010027   -0.000003
 ---------------------------------------------------------------------
 Rotational constants (GHZ):         124.9094668          24.5692153          23.6993088
 Standard basis: VSTO-6G (5D, 7F)
 There are    12 symmetry adapted cartesian basis functions of A   symmetry.
 There are    12 symmetry adapted basis functions of A   symmetry.
    12 basis functions,    72 primitive gaussians,    12 cartesian basis functions
     7 alpha electrons        7 beta electrons
       nuclear repulsion energy        37.7258954263 Hartrees.
 Integral buffers will be    131072 words long.
 Regular integral format.
 Two-electron integral symmetry is turned off.
 Do NDO integrals.
 One-electron integrals computed using PRISM.
 NBasis=    12 RedAO= F EigKep=  0.00D+00  NBF=    12
 NBsUse=    12 1.00D-04 EigRej=  0.00D+00 NBFU=    12
 Initial guess from the checkpoint file:  "2_#_opt_pm6_MMFF.chk"
 B after Tr=     0.000000    0.000000   -0.000000
         Rot=    1.000000   -0.000000   -0.000000    0.000089 Ang=  -0.01 deg.
 Keep J ints in memory in canonical form, NReq=859461.
 Overlap will be assumed to be unity.
 Requested convergence on RMS density matrix=1.00D-08 within 128 cycles.
 Requested convergence on MAX density matrix=1.00D-06.
 Requested convergence on             energy=1.00D-06.
 No special actions if energy rises.
 SCF Done:  E(RPM6) = -0.769321349000E-01 A.U. after    7 cycles
            NFock=  7  Conv=0.82D-08     -V/T= 0.9973
 Calling FoFJK, ICntrl=      2127 FMM=F ISym2X=0 I1Cent= 0 IOpClX= 0 NMat=1 NMatS=1 NMatT=0.
 ***** Axes restored to original set *****
 -------------------------------------------------------------------
 Center     Atomic                   Forces (Hartrees/Bohr)
 Number     Number              X              Y              Z
 -------------------------------------------------------------------
      1        1           0.000025214    0.000015526   -0.000032655
      2        8           0.000046562   -0.000050777    0.000071869
      3        6          -0.000116543    0.000043029   -0.000040044
      4        1          -0.000000820   -0.000014919    0.000026788
      5        1          -0.000001063   -0.000016434    0.000025877
      6        1           0.000046649    0.000023576   -0.000051835
 -------------------------------------------------------------------
 Cartesian Forces:  Max     0.000116543 RMS     0.000044841

 GradGradGradGradGradGradGradGradGradGradGradGradGradGradGradGradGradGrad
 Berny optimization.
 Using GEDIIS/GDIIS optimizer.
 FormGI is forming the generalized inverse of G from B-inverse, IUseBI=4.
 Internal  Forces:  Max     0.000088700 RMS     0.000034319
 Search for a local minimum.
 Step number   5 out of a maximum of   25
 All quantities printed in internal units (Hartrees-Bohrs-Radians)
 Mixed Optimization -- En-DIIS/RFO-DIIS
 Swapping is turned off.
 Update second derivatives using D2CorX and points    1    2    3    4    5
 DE= -5.43D-07 DEPred=-4.60D-07 R= 1.18D+00
 Trust test= 1.18D+00 RLast= 1.91D-03 DXMaxT set to 3.72D-01
 The second derivative matrix:
                          R1        R2        R3        R4        R5
           R1           0.52848
           R2          -0.01391   0.41934
           R3           0.01333   0.03979   0.33172
           R4           0.01333   0.03979  -0.01324   0.33172
           R5          -0.00083   0.01394  -0.00307  -0.00307   0.35059
           A1           0.02168   0.07079  -0.00489  -0.00489   0.00930
           A2           0.00372   0.02448  -0.00648  -0.00648   0.00363
           A3           0.00372   0.02448  -0.00648  -0.00648   0.00363
           A4           0.01192   0.03112  -0.00521  -0.00521   0.01620
           A5          -0.00621  -0.04067   0.00365   0.00365   0.00308
           A6          -0.00602  -0.01767   0.00690   0.00690  -0.01257
           A7          -0.00602  -0.01767   0.00691   0.00691  -0.01257
           D1          -0.00032   0.00754   0.00883   0.00883  -0.01638
           D2           0.00032  -0.00753  -0.00883  -0.00883   0.01638
           D3           0.00000   0.00000  -0.00000  -0.00000  -0.00000
                          A1        A2        A3        A4        A5
           A1           0.20241
           A2          -0.00010   0.15801
           A3          -0.00010  -0.00199   0.15801
           A4           0.01840  -0.00051  -0.00051   0.14682
           A5          -0.00256  -0.00727  -0.00727   0.01702   0.15606
           A6          -0.00740   0.00600   0.00600  -0.00313   0.00144
           A7          -0.00740   0.00601   0.00600  -0.00313   0.00144
           D1          -0.00199   0.01100   0.01100  -0.02053  -0.00012
           D2           0.00199  -0.01100  -0.01100   0.02053   0.00012
           D3          -0.00000  -0.00000  -0.00000  -0.00000   0.00000
                          A6        A7        D1        D2        D3
           A6           0.15515
           A7          -0.00485   0.15515
           D1          -0.00105  -0.00105   0.02292
           D2           0.00105   0.00105  -0.00809   0.02292
           D3          -0.00000  -0.00000  -0.00000   0.00000   0.01484
 ITU=  0  1  1  1  0
     Eigenvalues ---    0.01484   0.10806   0.10972   0.12312   0.15771
     Eigenvalues ---    0.16000   0.19055   0.30771   0.34496   0.35474
     Eigenvalues ---    0.47188   0.53224
 En-DIIS/RFO-DIIS/Sim-DIIS IScMMF=       -3 using points:     5    4    3
 RFO step:  Lambda=-7.15507232D-08.
 DidBck=F Rises=F RFO-DIIS coefs:    1.25310   -0.26061    0.00751
 Iteration  1 RMS(Cart)=  0.00013116 RMS(Int)=  0.00000004
 Iteration  2 RMS(Cart)=  0.00000002 RMS(Int)=  0.00000004
 Variable       Old X    -DE/DX   Delta X   Delta X   Delta X     New X
                                 (Linear)    (Quad)   (Total)
    R1        1.84666   0.00004   0.00003   0.00008   0.00011   1.84677
    R2        2.70938   0.00009   0.00030   0.00001   0.00032   2.70969
    R3        2.06816  -0.00002  -0.00013   0.00001  -0.00012   2.06804
    R4        2.06816  -0.00002  -0.00013   0.00001  -0.00012   2.06804
    R5        2.07533  -0.00007  -0.00001  -0.00020  -0.00021   2.07512
    A1        1.91771  -0.00002  -0.00025   0.00003  -0.00022   1.91749
    A2        1.92725  -0.00001   0.00002  -0.00011  -0.00009   1.92716
    A3        1.92725  -0.00001   0.00002  -0.00011  -0.00009   1.92716
    A4        1.80842   0.00000  -0.00015   0.00011  -0.00004   1.80838
    A5        1.94241   0.00003   0.00008   0.00023   0.00031   1.94272
    A6        1.92716  -0.00001   0.00001  -0.00007  -0.00006   1.92710
    A7        1.92716  -0.00001   0.00001  -0.00007  -0.00006   1.92710
    D1        1.07786   0.00001   0.00006   0.00007   0.00013   1.07799
    D2       -1.07785  -0.00001  -0.00006  -0.00007  -0.00014  -1.07798
    D3       -3.14159  -0.00000  -0.00000  -0.00000  -0.00000  -3.14159
         Item               Value     Threshold  Converged?
 Maximum Force            0.000089     0.000450     YES
 RMS     Force            0.000034     0.000300     YES
 Maximum Displacement     0.000245     0.001800     YES
 RMS     Displacement     0.000131     0.001200     YES
 Predicted change in Energy=-3.577203D-08
 Optimization completed.
    -- Stationary point found.
                           ----------------------------
                           !   Optimized Parameters   !
                           ! (Angstroms and Degrees)  !
 --------------------------                            --------------------------
 ! Name  Definition              Value          Derivative Info.                !
 --------------------------------------------------------------------------------
 ! R1    R(1,2)                  0.9772         -DE/DX =    0.0                 !
 ! R2    R(2,3)                  1.4337         -DE/DX =    0.0001              !
 ! R3    R(3,4)                  1.0944         -DE/DX =    0.0                 !
 ! R4    R(3,5)                  1.0944         -DE/DX =    0.0                 !
 ! R5    R(3,6)                  1.0982         -DE/DX =   -0.0001              !
 ! A1    A(1,2,3)              109.8766         -DE/DX =    0.0                 !
 ! A2    A(2,3,4)              110.4235         -DE/DX =    0.0                 !
 ! A3    A(2,3,5)              110.4235         -DE/DX =    0.0                 !
 ! A4    A(2,3,6)              103.6149         -DE/DX =    0.0                 !
 ! A5    A(4,3,5)              111.292          -DE/DX =    0.0                 !
 ! A6    A(4,3,6)              110.4182         -DE/DX =    0.0                 !
 ! A7    A(5,3,6)              110.4182         -DE/DX =    0.0                 !
 ! D1    D(1,2,3,4)             61.7566         -DE/DX =    0.0                 !
 ! D2    D(1,2,3,5)            -61.7562         -DE/DX =    0.0                 !
 ! D3    D(1,2,3,6)           -179.9998         -DE/DX =    0.0                 !
 --------------------------------------------------------------------------------
 GradGradGradGradGradGradGradGradGradGradGradGradGradGradGradGradGradGrad

                          Input orientation:                          
 ---------------------------------------------------------------------
 Center     Atomic      Atomic             Coordinates (Angstroms)
 Number     Number       Type             X           Y           Z
 ---------------------------------------------------------------------
      1          1           0        1.590509   -0.207853   -0.084621
      2          8           0        0.846475   -0.441041    0.504426
      3          6           0       -0.378738    0.078848   -0.028660
      4          1           0       -0.586857   -0.362774   -1.008159
      5          1           0       -0.337345    1.170991   -0.085829
      6          1           0       -1.134045   -0.238170    0.702843
 ---------------------------------------------------------------------
                    Distance matrix (angstroms):
                    1          2          3          4          5
     1  H    0.000000
     2  O    0.977210   0.000000
     3  C    1.990795   1.433741   0.000000
     4  H    2.370199   2.085301   1.094422   0.000000
     5  H    2.370198   2.085301   1.094422   1.807037   0.000000
     6  H    2.836233   2.000747   1.098220   1.800686   1.800686
                    6
     6  H    0.000000
 Stoichiometry    CH4O
 Framework group  C1[X(CH4O)]
 Deg. of freedom    12
 Full point group                 C1      NOp   1
 Largest Abelian subgroup         C1      NOp   1
 Largest concise Abelian subgroup C1      NOp   1
                         Standard orientation:                         
 ---------------------------------------------------------------------
 Center     Atomic      Atomic             Coordinates (Angstroms)
 Number     Number       Type             X           Y           Z
 ---------------------------------------------------------------------
      1          1           0        1.172043   -0.756006   -0.000000
      2          8           0        0.746417    0.123643    0.000000
      3          6           0       -0.679616   -0.024825    0.000000
      4          1           0       -1.009209   -0.547107    0.903520
      5          1           0       -1.009209   -0.547113   -0.903517
      6          1           0       -1.047270    1.010027   -0.000003
 ---------------------------------------------------------------------
 Rotational constants (GHZ):         124.9094668          24.5692153          23.6993088

 **********************************************************************

            Population analysis using the SCF density.

 **********************************************************************

 Orbital symmetries:
       Occupied  (A) (A) (A) (A) (A) (A) (A)
       Virtual   (A) (A) (A) (A) (A)
 The electronic state is 1-A.
 Alpha  occ. eigenvalues --   -1.09441  -0.90601  -0.65964  -0.56632  -0.55049
 Alpha  occ. eigenvalues --   -0.45801  -0.38698
 Alpha virt. eigenvalues --    0.09697   0.18654   0.19459   0.20637   0.21846
          Condensed to atoms (all electrons):
               1          2          3          4          5          6
     1  H    0.698756   0.000000   0.000000   0.000000   0.000000   0.000000
     2  O    0.000000   6.527900   0.000000   0.000000   0.000000   0.000000
     3  C    0.000000   0.000000   4.176676   0.000000   0.000000   0.000000
     4  H    0.000000   0.000000   0.000000   0.876621   0.000000   0.000000
     5  H    0.000000   0.000000   0.000000   0.000000   0.876621   0.000000
     6  H    0.000000   0.000000   0.000000   0.000000   0.000000   0.843426
 Mulliken charges:
               1
     1  H    0.301244
     2  O   -0.527900
     3  C   -0.176676
     4  H    0.123379
     5  H    0.123379
     6  H    0.156574
 Sum of Mulliken charges =  -0.00000
 Mulliken charges with hydrogens summed into heavy atoms:
               1
     2  O   -0.226655
     3  C    0.226655
 Charge=             -0.0000 electrons
 Dipole moment (field-independent basis, Debye):
    X=             -1.3122    Y=             -1.5725    Z=             -0.0000  Tot=              2.0481
 N-N= 3.772589542626D+01 E-N=-3.782346851707D+01  KE=-2.853846127848D+01
 1\1\GINC-MACMINIM12022MAC-MINI-2\FOpt\RPM6\ZDO\C1H4O1\MACMINI_M1_2022\
 19-Jul-2024\0\\# opt pm6\\Smiles:[2H]OC\\0,1\H,1.5905094271,-0.2078529
 917,-0.0846211774\O,0.8464752865,-0.441041156,0.5044258188\C,-0.378738
 3062,0.0788475105,-0.0286604658\H,-0.5868566944,-0.3627736254,-1.00815
 88126\H,-0.3373452197,1.1709911753,-0.0858287884\H,-1.134045491,-0.238
 1698986,0.7028434339\\Version=EM64M-G16RevA.03\State=1-A\HF=-0.0769321
 \RMSD=8.216e-09\RMSF=4.484e-05\Dipole=-0.2122389,0.4256528,-0.6504088\
 PG=C01 [X(C1H4O1)]\\@


 SIGN SEEN IN A RESTAURANT-
 WE RESERVE THE RIGHT TO SERVE REFUSE TO ANYONE.
 Job cpu time:       0 days  0 hours  0 minutes  2.0 seconds.
 Elapsed time:       0 days  0 hours  0 minutes  1.6 seconds.
 File lengths (MBytes):  RWF=      6 Int=      0 D2E=      0 Chk=      2 Scr=      1
 Normal termination of Gaussian 16 at Fri Jul 19 15:54:25 2024.
